nqpoint: 120    
npath: 3      
segment_nqpoint:
- 40
- 40
- 40
labels:
- [ '\Gamma', 'M' ]
- [ 'M', 'K' ]
- [ 'K', '\Gamma' ]
reciprocal_lattice:
- [   0.32232740,   0.18609712,  -0.00000359 ] # a*
- [   0.00000000,   0.37219425,  -0.00000718 ] # b*
- [   0.00000000,  -0.00000052,   0.03550717 ] # c*
natom: 3      
lattice:
- [     3.102435615808847,     0.000000000000000,     0.000000000000000 ] # a
- [    -1.551217807904424,     2.686769101801985,     0.000039674515114 ] # b
- [     0.000000000000000,     0.000543263010968,    28.163328230810635 ] # c
points:
- symbol: B  # 1
  coordinates: [  0.000000000000000,  0.000000000000000,  0.500000000000000 ]
  mass: 10.811000
- symbol: Mo # 2
  coordinates: [  0.666660667679448,  0.333321304358883,  0.539960770385174 ]
  mass: 95.960000
- symbol: Mo # 3
  coordinates: [  0.333339332320552,  0.666678665641114,  0.460039229614826 ]
  mass: 95.960000
supercell_matrix:
- [   16,    0,    0 ]
- [    0,   16,    0 ]
- [    0,    0,    1 ]

phonon:
- q-position: [    0.0000000,    0.0000000,    0.0000000 ]
  distance:    0.0000000
  band:
  - # 1
    frequency:   -0.0141375999
    group_velocity: [     0.0000000,     0.0000000,     0.0000000 ]
    eigenvector:
    - # atom 1
      - [ -0.00000000000069,  0.00000000000000 ]
      - [ -0.01641807609199,  0.00000000000000 ]
      - [ -0.23102378309225,  0.00000000000000 ]
    - # atom 2
      - [ -0.00000000000205,  0.00000000000000 ]
      - [ -0.04889773121447,  0.00000000000000 ]
      - [ -0.68614010310845,  0.00000000000000 ]
    - # atom 3
      - [ -0.00000000000205,  0.00000000000000 ]
      - [ -0.04889773121447,  0.00000000000000 ]
      - [ -0.68614010310845,  0.00000000000000 ]
  - # 2
    frequency:   -0.0023944476
    group_velocity: [     0.0000000,     0.0000000,     0.0000000 ]
    eigenvector:
    - # atom 1
      - [  0.00000000015234,  0.00000000000000 ]
      - [  0.23027551449405,  0.00000000000000 ]
      - [ -0.01641249760677,  0.00000000000000 ]
    - # atom 2
      - [  0.00000000045382,  0.00000000000000 ]
      - [  0.68626585794129,  0.00000000000000 ]
      - [ -0.04889867991577,  0.00000000000000 ]
    - # atom 3
      - [  0.00000000045382,  0.00000000000000 ]
      - [  0.68626585794129,  0.00000000000000 ]
      - [ -0.04889867991577,  0.00000000000000 ]
  - # 3
    frequency:    0.0027018214
    group_velocity: [     0.0000000,     0.0000000,     0.0000000 ]
    eigenvector:
    - # atom 1
      - [ -0.23095253882326,  0.00000000000000 ]
      - [  0.00000000015195,  0.00000000000000 ]
      - [ -0.00000000001014,  0.00000000000000 ]
    - # atom 2
      - [ -0.68799016156159,  0.00000000000000 ]
      - [  0.00000000045283,  0.00000000000000 ]
      - [ -0.00000000003021,  0.00000000000000 ]
    - # atom 3
      - [ -0.68799016156159,  0.00000000000000 ]
      - [  0.00000000045283,  0.00000000000000 ]
      - [ -0.00000000003021,  0.00000000000000 ]
  - # 4
    frequency:    6.3053352369
    group_velocity: [     0.0000000,     0.0000000,     0.0000000 ]
    eigenvector:
    - # atom 1
      - [ -0.00000000000000,  0.00000000000000 ]
      - [ -0.00000000000000,  0.00000000000000 ]
      - [ -0.00000000000000,  0.00000000000000 ]
    - # atom 2
      - [  0.70710678118655,  0.00000000000000 ]
      - [  0.00000000000863,  0.00000000000000 ]
      - [ -0.00000000000000,  0.00000000000000 ]
    - # atom 3
      - [ -0.70710678118655,  0.00000000000000 ]
      - [ -0.00000000000863,  0.00000000000000 ]
      - [  0.00000000000000,  0.00000000000000 ]
  - # 5
    frequency:    6.3055908062
    group_velocity: [     0.0000000,     0.0000000,     0.0000000 ]
    eigenvector:
    - # atom 1
      - [  0.00000000000000,  0.00000000000000 ]
      - [ -0.00000000000000,  0.00000000000000 ]
      - [ -0.00000000000000,  0.00000000000000 ]
    - # atom 2
      - [  0.00000000000863,  0.00000000000000 ]
      - [ -0.70710678117968,  0.00000000000000 ]
      - [ -0.00000311650699,  0.00000000000000 ]
    - # atom 3
      - [ -0.00000000000863,  0.00000000000000 ]
      - [  0.70710678117968,  0.00000000000000 ]
      - [  0.00000311650699,  0.00000000000000 ]
  - # 6
    frequency:    7.7278125566
    group_velocity: [     0.0000000,     0.0000000,     0.0000000 ]
    eigenvector:
    - # atom 1
      - [  0.00000000000000,  0.00000000000000 ]
      - [ -0.00000000000000,  0.00000000000000 ]
      - [  0.00000000000000,  0.00000000000000 ]
    - # atom 2
      - [  0.00000000000000,  0.00000000000000 ]
      - [ -0.00000311650699,  0.00000000000000 ]
      - [  0.70710678117968,  0.00000000000000 ]
    - # atom 3
      - [ -0.00000000000000,  0.00000000000000 ]
      - [  0.00000311650699,  0.00000000000000 ]
      - [ -0.70710678117968,  0.00000000000000 ]
  - # 7
    frequency:   19.8044593811
    group_velocity: [     0.0000000,     0.0000000,     0.0000000 ]
    eigenvector:
    - # atom 1
      - [ -0.00000000000000,  0.00000000000000 ]
      - [  0.00004802013526,  0.00000000000000 ]
      - [  0.97280966161386,  0.00000000000000 ]
    - # atom 2
      - [  0.00000000000000,  0.00000000000000 ]
      - [ -0.00004452696775,  0.00000000000000 ]
      - [ -0.16377019875344,  0.00000000000000 ]
    - # atom 3
      - [ -0.00000000000000,  0.00000000000000 ]
      - [ -0.00004452696774,  0.00000000000000 ]
      - [ -0.16377019875344,  0.00000000000000 ]
  - # 8
    frequency:   22.0340710323
    group_velocity: [     0.0000000,     0.0000000,     0.0000000 ]
    eigenvector:
    - # atom 1
      - [  0.97296501725966,  0.00000000000000 ]
      - [  0.00000000000000,  0.00000000000000 ]
      - [  0.00000000000000,  0.00000000000000 ]
    - # atom 2
      - [ -0.16330810633417,  0.00000000000000 ]
      - [ -0.00000000000000,  0.00000000000000 ]
      - [ -0.00000000000000,  0.00000000000000 ]
    - # atom 3
      - [ -0.16330810633417,  0.00000000000000 ]
      - [ -0.00000000000000,  0.00000000000000 ]
      - [ -0.00000000000000,  0.00000000000000 ]
  - # 9
    frequency:   22.0433243205
    group_velocity: [     0.0000000,     0.0000000,     0.0000000 ]
    eigenvector:
    - # atom 1
      - [  0.00000000000000,  0.00000000000000 ]
      - [ -0.97298696388801,  0.00000000000000 ]
      - [  0.00006195784024,  0.00000000000000 ]
    - # atom 2
      - [  0.00000000000000,  0.00000000000000 ]
      - [  0.16324270925076,  0.00000000000000 ]
      - [ -0.00000301393574,  0.00000000000000 ]
    - # atom 3
      - [  0.00000000000000,  0.00000000000000 ]
      - [  0.16324270925076,  0.00000000000000 ]
      - [ -0.00000301393574,  0.00000000000000 ]

- q-position: [    0.0000000,    0.0128205,    0.0000000 ]
  distance:    0.0047717
  band:
  - # 1
    frequency:    0.0629928287
    group_velocity: [     0.0000000,    13.8312068,     0.0002042 ]
    eigenvector:
    - # atom 1
      - [  0.00000000000000,  0.00000000000000 ]
      - [  0.00493768375470, -0.00344409799016 ]
      - [ -0.19004618099530,  0.13255965803529 ]
    - # atom 2
      - [  0.00000000000001,  0.00000000000000 ]
      - [  0.02643034266990,  0.00703917462175 ]
      - [ -0.56458458754908,  0.39196071527445 ]
    - # atom 3
      - [  0.00000000000001, -0.00000000000000 ]
      - [  0.00252367993168, -0.02723497810903 ]
      - [ -0.56285380556126,  0.39444207734677 ]
  - # 2
    frequency:    0.2935848026
    group_velocity: [     0.0000000,    61.4452379,     0.0009073 ]
    eigenvector:
    - # atom 1
      - [ -0.00000000000000,  0.00000000000000 ]
      - [  0.23054989499255, -0.00855853879985 ]
      - [  0.00604250678241, -0.00022431165607 ]
    - # atom 2
      - [ -0.00000000000001,  0.00000000000000 ]
      - [  0.68741929080291, -0.01652542090653 ]
      - [  0.01738278103837, -0.01574597039123 ]
    - # atom 3
      - [ -0.00000000000001, -0.00000000000000 ]
      - [  0.68675251693019, -0.03448697426800 ]
      - [  0.01850238173829,  0.01441383121155 ]
  - # 3
    frequency:    0.1715390508
    group_velocity: [     0.0000000,    35.9468720,     0.0005308 ]
    eigenvector:
    - # atom 1
      - [  0.23102109802252,  0.00000000000000 ]
      - [  0.00000000000000, -0.00000000000000 ]
      - [  0.00000000000000, -0.00000000000000 ]
    - # atom 2
      - [  0.68790046174348, -0.01037211971281 ]
      - [  0.00000000000001, -0.00000000000000 ]
      - [  0.00000000000001, -0.00000000000001 ]
    - # atom 3
      - [  0.68790046171842,  0.01037212137520 ]
      - [  0.00000000000001, -0.00000000000000 ]
      - [  0.00000000000001, -0.00000000000001 ]
  - # 4
    frequency:    6.3039242481
    group_velocity: [     0.0000000,    -0.5906826,    -0.0000087 ]
    eigenvector:
    - # atom 1
      - [ -0.00412221305451,  0.00000000000000 ]
      - [ -0.00000000000000,  0.00000000000000 ]
      - [  0.00000000000000,  0.00000000000000 ]
    - # atom 2
      - [  0.01135243848954,  0.70700963629933 ]
      - [  0.00000000000000, -0.00000000000011 ]
      - [ -0.00000000000000, -0.00000000000000 ]
    - # atom 3
      - [  0.01135244019813, -0.70700963627189 ]
      - [ -0.00000000000000,  0.00000000000011 ]
      - [ -0.00000000000000, -0.00000000000000 ]
  - # 5
    frequency:    6.2993273587
    group_velocity: [     0.0000000,    -2.6185962,    -0.0000387 ]
    eigenvector:
    - # atom 1
      - [  0.00000000000000,  0.00000000000000 ]
      - [ -0.00394523932901, -0.00011938162024 ]
      - [  0.00718636973318,  0.00021745714032 ]
    - # atom 2
      - [ -0.00000000000000, -0.00000000000011 ]
      - [  0.03183105304313, -0.70600938121963 ]
      - [ -0.02244641433775, -0.00024696959609 ]
    - # atom 3
      - [ -0.00000000000000,  0.00000000000011 ]
      - [ -0.01091531475803,  0.70664228447758 ]
      - [ -0.02242027870216, -0.00111068155690 ]
  - # 6
    frequency:    7.7276963152
    group_velocity: [     0.0000000,    -0.0491518,    -0.0000007 ]
    eigenvector:
    - # atom 1
      - [  0.00000000000000,  0.00000000000000 ]
      - [ -0.00127449473321, -0.00427869106937 ]
      - [  0.00003595420799,  0.00012070426392 ]
    - # atom 2
      - [ -0.00000000000000, -0.00000000000000 ]
      - [  0.00395567235809,  0.01581302106108 ]
      - [ -0.67782378626611,  0.20069689109408 ]
    - # atom 3
      - [  0.00000000000000,  0.00000000000000 ]
      - [  0.00534179801325,  0.01540013548214 ]
      - [  0.67716352395998, -0.20291350162337 ]
  - # 7
    frequency:   19.8069119524
    group_velocity: [     0.0000000,     1.0250941,     0.0000151 ]
    eigenvector:
    - # atom 1
      - [ -0.00000000000000,  0.00000000000000 ]
      - [  0.00057077574092, -0.00012756944637 ]
      - [  0.94931759316430, -0.21217425883906 ]
    - # atom 2
      - [ -0.00000000000000,  0.00000000000000 ]
      - [  0.00197588491991,  0.00994969487972 ]
      - [ -0.15980119620124,  0.03534970595632 ]
    - # atom 3
      - [ -0.00000000000000, -0.00000000000000 ]
      - [ -0.00244807838927, -0.00984415875615 ]
      - [ -0.15964530826969,  0.03604718527182 ]
  - # 8
    frequency:   22.0334551098
    group_velocity: [     0.0000000,    -0.2578648,    -0.0000038 ]
    eigenvector:
    - # atom 1
      - [  0.97294000823689,  0.00000000000000 ]
      - [  0.00000000000000, -0.00000000000000 ]
      - [  0.00000000000000, -0.00000000000000 ]
    - # atom 2
      - [ -0.16329138640309,  0.00545832506869 ]
      - [ -0.00000000000000, -0.00000000000000 ]
      - [ -0.00000000000000, -0.00000000000000 ]
    - # atom 3
      - [ -0.16329138638990, -0.00545832546331 ]
      - [ -0.00000000000000, -0.00000000000000 ]
      - [ -0.00000000000000, -0.00000000000000 ]
  - # 9
    frequency:   22.0424839667
    group_velocity: [     0.0000000,    -0.3509738,    -0.0000052 ]
    eigenvector:
    - # atom 1
      - [  0.00000000000000,  0.00000000000000 ]
      - [ -0.97039084658702,  0.07101413170976 ]
      - [  0.00055357082981, -0.00004051084360 ]
    - # atom 2
      - [ -0.00000000000000,  0.00000000000000 ]
      - [  0.16296151057761, -0.00678235481942 ]
      - [ -0.00049595026847, -0.00681503518821 ]
    - # atom 3
      - [ -0.00000000000000,  0.00000000000000 ]
      - [  0.16221273381099, -0.01701420748074 ]
      - [  0.00050148169832,  0.00681463039288 ]

- q-position: [    0.0000000,    0.0256410,    0.0000000 ]
  distance:    0.0095434
  band:
  - # 1
    frequency:    0.1279147899
    group_velocity: [     0.0000000,    13.4518622,     0.0001986 ]
    eigenvector:
    - # atom 1
      - [ -0.00000000000000,  0.00000000000000 ]
      - [  0.00284522483261,  0.00559967888907 ]
      - [ -0.10520819853049, -0.20705995586604 ]
    - # atom 2
      - [ -0.00000000000000,  0.00000000000000 ]
      - [ -0.02949144871415,  0.03456387867394 ]
      - [ -0.30818339725956, -0.61316194056926 ]
    - # atom 3
      - [ -0.00000000000000, -0.00000000000000 ]
      - [  0.04530528377950, -0.00344071473777 ]
      - [ -0.31353600593941, -0.61044225336117 ]
  - # 2
    frequency:    0.5859574216
    group_velocity: [     0.0000000,    61.0566078,     0.0009016 ]
    eigenvector:
    - # atom 1
      - [ -0.00000000000001,  0.00000000000000 ]
      - [ -0.23014502863106, -0.01249408114131 ]
      - [ -0.00614226062609, -0.00033345018622 ]
    - # atom 2
      - [ -0.00000000000004,  0.00000000000000 ]
      - [ -0.68491091916094, -0.05524948883241 ]
      - [ -0.02033165759891,  0.02916870045547 ]
    - # atom 3
      - [ -0.00000000000004, -0.00000000000000 ]
      - [ -0.68686680753516, -0.01922139195228 ]
      - [ -0.01705446146773, -0.03119831295163 ]
  - # 3
    frequency:    0.3431399183
    group_velocity: [     0.0000000,    35.9789395,     0.0005313 ]
    eigenvector:
    - # atom 1
      - [ -0.23122331535408,  0.00000000000000 ]
      - [  0.00000000000001,  0.00000000000000 ]
      - [  0.00000000000000,  0.00000000000000 ]
    - # atom 2
      - [ -0.68763276826138,  0.02071388982134 ]
      - [  0.00000000000004,  0.00000000000000 ]
      - [  0.00000000000000,  0.00000000000000 ]
    - # atom 3
      - [ -0.68763276816126, -0.02071389314482 ]
      - [  0.00000000000004,  0.00000000000000 ]
      - [  0.00000000000000,  0.00000000000000 ]
  - # 4
    frequency:    6.2997115955
    group_velocity: [     0.0000000,    -1.1728912,    -0.0000173 ]
    eigenvector:
    - # atom 1
      - [ -0.00822946904479,  0.00000000000000 ]
      - [  0.00000000000000,  0.00000000000000 ]
      - [ -0.00000000000000, -0.00000000000000 ]
    - # atom 2
      - [  0.02267246115028,  0.70671924936640 ]
      - [ -0.00000000000000,  0.00000000000001 ]
      - [  0.00000000000000,  0.00000000000000 ]
    - # atom 3
      - [  0.02267246456601, -0.70671924925682 ]
      - [  0.00000000000000, -0.00000000000001 ]
      - [  0.00000000000000,  0.00000000000000 ]
  - # 5
    frequency:    6.2807268568
    group_velocity: [     0.0000000,    -5.1577175,    -0.0000762 ]
    eigenvector:
    - # atom 1
      - [ -0.00000000000000,  0.00000000000000 ]
      - [ -0.00773762220753, -0.00140358100285 ]
      - [  0.01398876155155,  0.00253751856068 ]
    - # atom 2
      - [  0.00000000000000,  0.00000000000001 ]
      - [  0.14661979987951, -0.69017430774978 ]
      - [ -0.04460428857341, -0.00636663196961 ]
    - # atom 3
      - [  0.00000000000000, -0.00000000000001 ]
      - [ -0.10513623126345,  0.69769930032236 ]
      - [ -0.04399859890290, -0.00970566104692 ]
  - # 6
    frequency:    7.7273351035
    group_velocity: [     0.0000000,    -0.1035896,    -0.0000015 ]
    eigenvector:
    - # atom 1
      - [ -0.00000000000000,  0.00000000000000 ]
      - [ -0.00580222953149, -0.00675977325058 ]
      - [  0.00013682234441,  0.00015940217787 ]
    - # atom 2
      - [  0.00000000000000,  0.00000000000000 ]
      - [  0.01903491166055,  0.02657101715125 ]
      - [ -0.53736756000437,  0.45839726916170 ]
    - # atom 3
      - [ -0.00000000000000, -0.00000000000000 ]
      - [  0.02337890480126,  0.02284236469087 ]
      - [  0.53455005483098, -0.46167974809402 ]
  - # 7
    frequency:   19.8141879896
    group_velocity: [     0.0000000,     2.0160941,     0.0000298 ]
    eigenvector:
    - # atom 1
      - [  0.00000000000000,  0.00000000000000 ]
      - [  0.00210616871137,  0.00059264435936 ]
      - [  0.93617331407258,  0.26342516198649 ]
    - # atom 2
      - [  0.00000000000000, -0.00000000000000 ]
      - [ -0.00626814626684,  0.01921231845526 ]
      - [ -0.15705747050565, -0.04489442681113 ]
    - # atom 3
      - [ -0.00000000000000,  0.00000000000000 ]
      - [  0.00467047163360, -0.01966188019414 ]
      - [ -0.15742292633529, -0.04359565189750 ]
  - # 8
    frequency:   22.0316156808
    group_velocity: [     0.0000000,    -0.5122266,    -0.0000076 ]
    eigenvector:
    - # atom 1
      - [  0.97286589737533,  0.00000000000000 ]
      - [ -0.00000000000000, -0.00000000000000 ]
      - [ -0.00000000000000, -0.00000000000000 ]
    - # atom 2
      - [ -0.16323950354797,  0.01090125421499 ]
      - [  0.00000000000000,  0.00000000000000 ]
      - [  0.00000000000000, -0.00000000000000 ]
    - # atom 3
      - [ -0.16323950349528, -0.01090125500396 ]
      - [  0.00000000000000, -0.00000000000000 ]
      - [  0.00000000000000,  0.00000000000000 ]
  - # 9
    frequency:   22.0399985497
    group_velocity: [     0.0000000,    -0.6870451,    -0.0000101 ]
    eigenvector:
    - # atom 1
      - [  0.00000000000000,  0.00000000000000 ]
      - [  0.97289844462502,  0.01266254548214 ]
      - [ -0.00202777185655, -0.00002639201810 ]
    - # atom 2
      - [  0.00000000000000, -0.00000000000000 ]
      - [ -0.16221057441032, -0.01237572802202 ]
      - [ -0.00019873703645,  0.01366064879268 ]
    - # atom 3
      - [  0.00000000000000,  0.00000000000000 ]
      - [ -0.16247772018766,  0.00814981823248 ]
      - [  0.00015686445551, -0.01366119377614 ]

- q-position: [    0.0000000,    0.0384615,    0.0000000 ]
  distance:    0.0143152
  band:
  - # 1
    frequency:    0.1915018947
    group_velocity: [     0.0000000,    13.1948965,     0.0001948 ]
    eigenvector:
    - # atom 1
      - [ -0.00000000000000,  0.00000000000000 ]
      - [  0.00523414314506,  0.00412159139713 ]
      - [ -0.18318498013662, -0.14424780088961 ]
    - # atom 2
      - [ -0.00000000000000, -0.00000000000000 ]
      - [ -0.02585966907642,  0.06022459681181 ]
      - [ -0.53500462326828, -0.42693097117222 ]
    - # atom 3
      - [ -0.00000000000000,  0.00000000000000 ]
      - [  0.05248053156268, -0.03926217458048 ]
      - [ -0.54049230902702, -0.41996198035909 ]
  - # 2
    frequency:    0.8758724568
    group_velocity: [     0.0000000,    60.4152592,     0.0008921 ]
    eigenvector:
    - # atom 1
      - [  0.00000000000000,  0.00000000000000 ]
      - [  0.22656814376229, -0.04023349905962 ]
      - [  0.00616840850118, -0.00109537313371 ]
    - # atom 2
      - [  0.00000000000001, -0.00000000000000 ]
      - [  0.67998528225114, -0.09308120353128 ]
      - [  0.01158807545003, -0.04822933047706 ]
    - # atom 3
      - [  0.00000000000001,  0.00000000000000 ]
      - [  0.67045882395105, -0.14672784301272 ]
      - [  0.02748487992530,  0.04129083659111 ]
  - # 3
    frequency:    0.5149211992
    group_velocity: [     0.0000000,    36.0224985,     0.0005319 ]
    eigenvector:
    - # atom 1
      - [  0.23154896694095,  0.00000000000000 ]
      - [ -0.00000000000000,  0.00000000000000 ]
      - [ -0.00000000000000, -0.00000000000000 ]
    - # atom 2
      - [  0.68719122070684, -0.03099619553637 ]
      - [ -0.00000000000001,  0.00000000000000 ]
      - [ -0.00000000000000, -0.00000000000000 ]
    - # atom 3
      - [  0.68719122048213,  0.03099620051839 ]
      - [ -0.00000000000001,  0.00000000000000 ]
      - [ -0.00000000000000, -0.00000000000000 ]
  - # 4
    frequency:    6.2927570787
    group_velocity: [     0.0000000,    -1.7386270,    -0.0000257 ]
    eigenvector:
    - # atom 1
      - [  0.01230756999710, -0.00000000000000 ]
      - [ -0.00000000000000, -0.00000000000000 ]
      - [ -0.00000000000000,  0.00000000000000 ]
    - # atom 2
      - [ -0.03392886076125, -0.70623869496639 ]
      - [  0.00000000000000,  0.00000000000000 ]
      - [ -0.00000000000000, -0.00000000000000 ]
    - # atom 3
      - [ -0.03392886588137,  0.70623869472041 ]
      - [ -0.00000000000000, -0.00000000000000 ]
      - [  0.00000000000000, -0.00000000000000 ]
  - # 5
    frequency:    6.2503560368
    group_velocity: [     0.0000000,    -7.5390869,    -0.0001113 ]
    eigenvector:
    - # atom 1
      - [  0.00000000000000,  0.00000000000000 ]
      - [ -0.01122723558264,  0.00335671816755 ]
      - [  0.02004700715710, -0.00599365290181 ]
    - # atom 2
      - [ -0.00000000000000, -0.00000000000000 ]
      - [ -0.17068671746978, -0.68261132730106 ]
      - [ -0.06397587991394,  0.02296398779683 ]
    - # atom 3
      - [ -0.00000000000000,  0.00000000000000 ]
      - [  0.23200617322673,  0.66427804063135 ]
      - [ -0.06608170548848,  0.01592062015216 ]
  - # 6
    frequency:    7.7266900444
    group_velocity: [     0.0000000,    -0.1691670,    -0.0000025 ]
    eigenvector:
    - # atom 1
      - [  0.00000000000000,  0.00000000000000 ]
      - [  0.00757093982191,  0.01095180608867 ]
      - [ -0.00012326141894, -0.00017830483272 ]
    - # atom 2
      - [ -0.00000000000000, -0.00000000000000 ]
      - [ -0.02257691911285, -0.04374374295170 ]
      - [  0.58182322288844, -0.39871023425223 ]
    - # atom 3
      - [  0.00000000000000,  0.00000000000000 ]
      - [ -0.03294704768593, -0.03657491452941 ]
      - [ -0.57854719655018,  0.40344919748797 ]
  - # 7
    frequency:   19.8260464293
    group_velocity: [     0.0000000,     2.9405582,     0.0000434 ]
    eigenvector:
    - # atom 1
      - [  0.00000000000000,  0.00000000000000 ]
      - [  0.00338696567743,  0.00345002514706 ]
      - [  0.68106745550397,  0.69374775894300 ]
    - # atom 2
      - [ -0.00000000000000,  0.00000000000000 ]
      - [ -0.02271255089815,  0.01978107597824 ]
      - [ -0.11341398965742, -0.11682899005502 ]
    - # atom 3
      - [ -0.00000000000000, -0.00000000000000 ]
      - [  0.02019664364019, -0.02234382511633 ]
      - [ -0.11471719424958, -0.11554960541168 ]
  - # 8
    frequency:   22.0285779937
    group_velocity: [     0.0000000,    -0.7594850,    -0.0000112 ]
    eigenvector:
    - # atom 1
      - [  0.97274539301368,  0.00000000000000 ]
      - [ -0.00000000000000,  0.00000000000000 ]
      - [ -0.00000000000000, -0.00000000000000 ]
    - # atom 2
      - [ -0.16314735238699,  0.01631384670900 ]
      - [  0.00000000000000, -0.00000000000000 ]
      - [ -0.00000000000000, -0.00000000000000 ]
    - # atom 3
      - [ -0.16314735226871, -0.01631384789179 ]
      - [  0.00000000000000, -0.00000000000000 ]
      - [  0.00000000000000,  0.00000000000000 ]
  - # 9
    frequency:   22.0359739333
    group_velocity: [     0.0000000,    -0.9937595,    -0.0000147 ]
    eigenvector:
    - # atom 1
      - [ -0.00000000000000,  0.00000000000000 ]
      - [ -0.96745548019816,  0.10342000811194 ]
      - [  0.00443573004239, -0.00047417503581 ]
    - # atom 2
      - [  0.00000000000000,  0.00000000000000 ]
      - [  0.16197006227997, -0.00182123875429 ]
      - [ -0.00212347235963, -0.02037205160038 ]
    - # atom 3
      - [  0.00000000000000, -0.00000000000000 ]
      - [  0.15869507319456, -0.03245753732726 ]
      - [  0.00223080421296,  0.02036057793468 ]

- q-position: [    0.0000000,    0.0512821,    0.0000000 ]
  distance:    0.0190869
  band:
  - # 1
    frequency:    0.2537514272
    group_velocity: [     0.0000000,    12.8849806,     0.0001903 ]
    eigenvector:
    - # atom 1
      - [ -0.00000000000000,  0.00000000000000 ]
      - [ -0.00678367241347,  0.00240435790346 ]
      - [  0.22095168407433, -0.07831258579537 ]
    - # atom 2
      - [ -0.00000000000000,  0.00000000000000 ]
      - [ -0.04368270703505, -0.07483947622205 ]
      - [  0.64463566956912, -0.22233662306349 ]
    - # atom 3
      - [ -0.00000000000000, -0.00000000000000 ]
      - [  0.01319803426464,  0.08564425250215 ]
      - [  0.64076672243527, -0.23325249806952 ]
  - # 2
    frequency:    1.1621308148
    group_velocity: [     0.0000000,    59.5249480,     0.0008790 ]
    eigenvector:
    - # atom 1
      - [  0.00000000000000,  0.00000000000000 ]
      - [  0.22825651441418, -0.02477824570828 ]
      - [  0.00637417647070, -0.00069194481123 ]
    - # atom 2
      - [  0.00000000000000, -0.00000000000000 ]
      - [  0.68415234234052, -0.03738677076903 ]
      - [  0.01474008428467, -0.06278915816949 ]
    - # atom 3
      - [  0.00000000000000,  0.00000000000000 ]
      - [  0.67623842018621, -0.11028960614045 ]
      - [  0.02787004066404,  0.05816364243871 ]
  - # 3
    frequency:    0.6869290976
    group_velocity: [     0.0000000,    36.0725665,     0.0005327 ]
    eigenvector:
    - # atom 1
      - [ -0.23198152937120,  0.00000000000000 ]
      - [  0.00000000000000, -0.00000000000000 ]
      - [ -0.00000000000000,  0.00000000000000 ]
    - # atom 2
      - [ -0.68658245692042,  0.04119241270444 ]
      - [  0.00000000000000,  0.00000000000000 ]
      - [ -0.00000000000000,  0.00000000000000 ]
    - # atom 3
      - [ -0.68658245652224, -0.04119241934125 ]
      - [  0.00000000000000, -0.00000000000000 ]
      - [ -0.00000000000000,  0.00000000000000 ]
  - # 4
    frequency:    6.2831566501
    group_velocity: [     0.0000000,    -2.2808036,    -0.0000337 ]
    eigenvector:
    - # atom 1
      - [  0.01634375032078, -0.00000000000000 ]
      - [  0.00000000000000,  0.00000000000000 ]
      - [ -0.00000000000000,  0.00000000000000 ]
    - # atom 2
      - [ -0.04509286920402, -0.70557286941866 ]
      - [  0.00000000000000,  0.00000000000000 ]
      - [  0.00000000000000, -0.00000000000000 ]
    - # atom 3
      - [ -0.04509287602441,  0.70557286898277 ]
      - [ -0.00000000000000, -0.00000000000000 ]
      - [  0.00000000000000, -0.00000000000000 ]
  - # 5
    frequency:    6.2091493521
    group_velocity: [     0.0000000,    -9.6871536,    -0.0001430 ]
    eigenvector:
    - # atom 1
      - [ -0.00000000000000,  0.00000000000000 ]
      - [  0.01543814272234, -0.00105947720932 ]
      - [ -0.02709585146487,  0.00185951364814 ]
    - # atom 2
      - [ -0.00000000000000,  0.00000000000000 ]
      - [  0.00463392963781,  0.70082170187905 ]
      - [  0.09046892981349, -0.01242138316488 ]
    - # atom 3
      - [  0.00000000000000, -0.00000000000000 ]
      - [ -0.09114952705773, -0.69488437516301 ]
      - [  0.09131766034777, -0.00005412888809 ]
  - # 6
    frequency:    7.7256923026
    group_velocity: [     0.0000000,    -0.2526048,    -0.0000037 ]
    eigenvector:
    - # atom 1
      - [ -0.00000000000000,  0.00000000000000 ]
      - [ -0.01754093788991, -0.00211054090529 ]
      - [  0.00012038285315,  0.00001448456961 ]
    - # atom 2
      - [ -0.00000000000000, -0.00000000000000 ]
      - [  0.06329879688395,  0.01857833646197 ]
      - [ -0.08725495329939,  0.69848307356633 ]
    - # atom 3
      - [  0.00000000000000,  0.00000000000000 ]
      - [  0.06589910762304, -0.00303313157253 ]
      - [  0.08092093386977, -0.69924518832495 ]
  - # 7
    frequency:   19.8420984272
    group_velocity: [     0.0000000,     3.7692267,     0.0000557 ]
    eigenvector:
    - # atom 1
      - [  0.00000000000000,  0.00000000000000 ]
      - [  0.00835669727789,  0.00147551062627 ]
      - [  0.95690190222446,  0.16895657196574 ]
    - # atom 2
      - [ -0.00000000000000,  0.00000000000000 ]
      - [ -0.00997032991655,  0.03853382009479 ]
      - [ -0.15944580197866, -0.02920583598428 ]
    - # atom 3
      - [  0.00000000000000, -0.00000000000000 ]
      - [  0.00382868375063, -0.03961822750301 ]
      - [ -0.15980643893193, -0.02716333374335 ]
  - # 8
    frequency:   22.0243848824
    group_velocity: [     0.0000000,    -0.9958567,    -0.0000147 ]
    eigenvector:
    - # atom 1
      - [ -0.97258287660027,  0.00000000000000 ]
      - [ -0.00000000000003, -0.00000000000000 ]
      - [  0.00000000000000,  0.00000000000000 ]
    - # atom 2
      - [  0.16300663482221, -0.02168204501222 ]
      - [  0.00000000000000,  0.00000000000000 ]
      - [  0.00000000000000, -0.00000000000000 ]
    - # atom 3
      - [  0.16300663461262,  0.02168204658792 ]
      - [  0.00000000000000, -0.00000000000000 ]
      - [ -0.00000000000000,  0.00000000000000 ]
  - # 9
    frequency:   22.0305829964
    group_velocity: [     0.0000000,    -1.2575571,    -0.0000186 ]
    eigenvector:
    - # atom 1
      - [  0.00000000000003,  0.00000000000000 ]
      - [ -0.97134238710776, -0.05570961207829 ]
      - [  0.00780714119326,  0.00044776467401 ]
    - # atom 2
      - [ -0.00000000000000,  0.00000000000000 ]
      - [  0.15824017515413,  0.02966540986767 ]
      - [  0.00166858619444, -0.02723698471230 ]
    - # atom 3
      - [ -0.00000000000000, -0.00000000000000 ]
      - [  0.16059421753434, -0.01137922976125 ]
      - [ -0.00145636959937,  0.02724915601805 ]

- q-position: [    0.0000000,    0.0641026,    0.0000000 ]
  distance:    0.0238586
  band:
  - # 1
    frequency:    0.3143600357
    group_velocity: [     0.0000000,    12.5071762,     0.0001847 ]
    eigenvector:
    - # atom 1
      - [ -0.00000000000000,  0.00000000000000 ]
      - [  0.00273486461335,  0.00740926011103 ]
      - [ -0.08172803765448, -0.22141655071003 ]
    - # atom 2
      - [ -0.00000000000000,  0.00000000000000 ]
      - [ -0.09564114117535,  0.05142414000190 ]
      - [ -0.22831186689238, -0.63890410276687 ]
    - # atom 3
      - [ -0.00000000000000, -0.00000000000000 ]
      - [  0.10611550014748, -0.02304714057553 ]
      - [ -0.24154287166163, -0.63402034844765 ]
  - # 2
    frequency:    1.4435607127
    group_velocity: [     0.0000000,    58.3928917,     0.0008623 ]
    eigenvector:
    - # atom 1
      - [ -0.00000000000000,  0.00000000000000 ]
      - [ -0.22561139076943,  0.03891477638784 ]
      - [ -0.00649459437230,  0.00112022574244 ]
    - # atom 2
      - [ -0.00000000000000,  0.00000000000000 ]