nqpoint: 160    
npath: 4      
segment_nqpoint:
- 40
- 40
- 40
- 40
labels:
- [ '\Gamma', 'X' ]
- [ 'X', 'L' ]
- [ 'L', 'W' ]
- [ 'W', '\Gamma' ]
reciprocal_lattice:
- [   0.27990082,   0.00000000,   0.00000000 ] # a*
- [   0.00000000,   0.27990082,   0.00000000 ] # b*
- [   0.00000000,   0.00000000,   0.27990082 ] # c*
natom: 8      
lattice:
- [     3.572694025552063,     0.000000000000000,     0.000000000000000 ] # a
- [     0.000000000000000,     3.572694025552063,     0.000000000000000 ] # b
- [     0.000000000000000,     0.000000000000000,     3.572694025552063 ] # c
points:
- symbol: C  # 1
  coordinates: [  0.000000000000000,  0.000000000000000,  0.000000000000000 ]
  mass: 12.010700
- symbol: C  # 2
  coordinates: [  0.000000000000000,  0.500000000000000,  0.500000000000000 ]
  mass: 12.010700
- symbol: C  # 3
  coordinates: [  0.500000000000000,  0.500000000000000,  0.000000000000000 ]
  mass: 12.010700
- symbol: C  # 4
  coordinates: [  0.500000000000000,  0.000000000000000,  0.500000000000000 ]
  mass: 12.010700
- symbol: C  # 5
  coordinates: [  0.750000000000000,  0.250000000000000,  0.750000000000000 ]
  mass: 12.010700
- symbol: C  # 6
  coordinates: [  0.250000000000000,  0.250000000000000,  0.250000000000000 ]
  mass: 12.010700
- symbol: C  # 7
  coordinates: [  0.250000000000000,  0.750000000000000,  0.750000000000000 ]
  mass: 12.010700
- symbol: C  # 8
  coordinates: [  0.750000000000000,  0.750000000000000,  0.250000000000000 ]
  mass: 12.010700
supercell_matrix:
- [    4,    0,    0 ]
- [    0,    4,    0 ]
- [    0,    0,    4 ]

phonon:
- q-position: [    0.0000000,    0.0000000,    0.0000000 ]
  distance:    0.0000000
  band:
  - # 1
    frequency:    0.0044218208
    group_velocity: [     0.0000000,     0.0000000,     0.0000000 ]
  - # 2
    frequency:    0.0044218209
    group_velocity: [     0.0000000,     0.0000000,    -0.0000000 ]
  - # 3
    frequency:    0.0044218209
    group_velocity: [     0.0000000,    -0.0000000,    -0.0000000 ]
  - # 4
    frequency:   23.3883489391
    group_velocity: [     0.0000000,    -0.0000000,    -0.0000000 ]
  - # 5
    frequency:   23.3883489391
    group_velocity: [     0.0000000,    -0.0000000,     0.0000000 ]
  - # 6
    frequency:   23.3883489391
    group_velocity: [     0.0000000,     0.0000000,     0.0000000 ]
  - # 7
    frequency:   23.3883489391
    group_velocity: [    -0.0000000,     0.0000000,    -0.0000000 ]
  - # 8
    frequency:   23.3883489391
    group_velocity: [    -0.0000000,     0.0000000,     0.0000000 ]
  - # 9
    frequency:   23.3883489391
    group_velocity: [    -0.0000000,     0.0000000,    -0.0000000 ]
  - # 10
    frequency:   31.8713197048
    group_velocity: [    -0.0000000,     0.0000000,    -0.0000000 ]
  - # 11
    frequency:   31.8713197048
    group_velocity: [    -0.0000000,     0.0000000,     0.0000000 ]
  - # 12
    frequency:   31.8713197048
    group_velocity: [     0.0000000,     0.0000000,    -0.0000000 ]
  - # 13
    frequency:   31.8713197048
    group_velocity: [     0.0000000,     0.0000000,    -0.0000000 ]
  - # 14
    frequency:   31.8713197048
    group_velocity: [     0.0000000,    -0.0000000,    -0.0000000 ]
  - # 15
    frequency:   31.8713197048
    group_velocity: [     0.0000000,     0.0000000,    -0.0000000 ]
  - # 16
    frequency:   35.7846641668
    group_velocity: [    -0.0000000,     0.0000000,    -0.0000000 ]
  - # 17
    frequency:   35.7846641668
    group_velocity: [    -0.0000000,     0.0000000,    -0.0000000 ]
  - # 18
    frequency:   35.7846641668
    group_velocity: [     0.0000000,    -0.0000000,    -0.0000000 ]
  - # 19
    frequency:   35.7846641668
    group_velocity: [     0.0000000,     0.0000000,     0.0000000 ]
  - # 20
    frequency:   35.7846641668
    group_velocity: [     0.0000000,    -0.0000000,     0.0000000 ]
  - # 21
    frequency:   35.7846641668
    group_velocity: [    -0.0000000,     0.0000000,     0.0000000 ]
  - # 22
    frequency:   38.7793159138
    group_velocity: [     0.0000000,     0.0000000,     0.0000000 ]
  - # 23
    frequency:   38.7793159138
    group_velocity: [     0.0000000,    -0.0000000,     0.0000000 ]
  - # 24
    frequency:   38.7793159138
    group_velocity: [     0.0000000,     0.0000000,     0.0000000 ]

- q-position: [    0.0128205,    0.0000000,    0.0128205 ]
  distance:    0.0050749
  band:
  - # 1
    frequency:    0.5811646595
    group_velocity: [    80.9439478,     0.0000000,    80.9439478 ]
  - # 2
    frequency:    0.6258157745
    group_velocity: [    87.1939130,     0.0000000,    87.1939130 ]
  - # 3
    frequency:    0.9138968320
    group_velocity: [   127.2750424,     0.0000000,   127.2750424 ]
  - # 4
    frequency:   23.3862522390
    group_velocity: [    -0.5924870,     0.0000000,    -0.5924870 ]
  - # 5
    frequency:   23.3862522390
    group_velocity: [    -0.5924870,     0.0000000,    -0.5924870 ]
  - # 6
    frequency:   23.3863668331
    group_velocity: [    -0.5445628,     0.0000000,    -0.5445628 ]
  - # 7
    frequency:   23.3863668331
    group_velocity: [    -0.5445628,     0.0000000,    -0.5445628 ]
  - # 8
    frequency:   23.3867636607
    group_velocity: [    -0.4423785,     0.0000000,    -0.4423785 ]
  - # 9
    frequency:   23.4072602330
    group_velocity: [     5.2656647,     0.0000000,     5.2656647 ]
  - # 10
    frequency:   31.8644017998
    group_velocity: [    -1.9257515,     0.0000000,    -1.9257515 ]
  - # 11
    frequency:   31.8726331064
    group_velocity: [     0.3660938,     0.0000000,     0.3660938 ]
  - # 12
    frequency:   31.8741316297
    group_velocity: [     0.7589948,     0.0000000,     0.7589948 ]
  - # 13
    frequency:   31.8741316297
    group_velocity: [     0.7589948,     0.0000000,     0.7589948 ]
  - # 14
    frequency:   31.8744129688
    group_velocity: [     0.8772542,     0.0000000,     0.8772542 ]
  - # 15
    frequency:   31.8744129688
    group_velocity: [     0.8772542,     0.0000000,     0.8772542 ]
  - # 16
    frequency:   35.5742525854
    group_velocity: [   -30.0152604,     0.0000000,   -30.0152604 ]
  - # 17
    frequency:   35.5742525854
    group_velocity: [   -30.0152604,     0.0000000,   -30.0152604 ]
  - # 18
    frequency:   35.7725488550
    group_velocity: [    -3.3749954,     0.0000000,    -3.3749954 ]
  - # 19
    frequency:   35.7882914093
    group_velocity: [     1.0089521,     0.0000000,     1.0089521 ]
  - # 20
    frequency:   35.9841156920
    group_velocity: [    26.9713470,     0.0000000,    26.9713470 ]
  - # 21
    frequency:   35.9841156920
    group_velocity: [    26.9713470,     0.0000000,    26.9713470 ]
  - # 22
    frequency:   38.7750011867
    group_velocity: [    -1.2013399,     0.0000000,    -1.2013399 ]
  - # 23
    frequency:   38.7760472124
    group_velocity: [    -0.9109417,     0.0000000,    -0.9109417 ]
  - # 24
    frequency:   38.7800023533
    group_velocity: [     0.1906362,     0.0000000,     0.1906362 ]

- q-position: [    0.0256410,    0.0000000,    0.0256410 ]
  distance:    0.0101497
  band:
  - # 1
    frequency:    1.1617021763
    group_velocity: [    80.8200342,     0.0000000,    80.8200342 ]
  - # 2
    frequency:    1.2516112848
    group_velocity: [    87.1960266,     0.0000000,    87.1960266 ]
  - # 3
    frequency:    1.8264894952
    group_velocity: [   127.0070710,     0.0000000,   127.0070710 ]
  - # 4
    frequency:   23.3797231792
    group_velocity: [    -1.2356852,     0.0000000,    -1.2356852 ]
  - # 5
    frequency:   23.3797231792
    group_velocity: [    -1.2356852,     0.0000000,    -1.2356852 ]
  - # 6
    frequency:   23.3806419286
    group_velocity: [    -1.0432948,     0.0000000,    -1.0432948 ]
  - # 7
    frequency:   23.3806419286
    group_velocity: [    -1.0432948,     0.0000000,    -1.0432948 ]
  - # 8
    frequency:   23.3819816551
    group_velocity: [    -0.8920398,     0.0000000,    -0.8920398 ]
  - # 9
    frequency:   23.4638073999
    group_velocity: [    10.4794187,     0.0000000,    10.4794187 ]
  - # 10
    frequency:   31.8437362674
    group_velocity: [    -3.8270699,     0.0000000,    -3.8270699 ]
  - # 11
    frequency:   31.8765771066
    group_velocity: [     0.7332467,     0.0000000,     0.7332467 ]
  - # 12
    frequency:   31.8817717012
    group_velocity: [     1.3320097,     0.0000000,     1.3320097 ]
  - # 13
    frequency:   31.8817717012
    group_velocity: [     1.3320097,     0.0000000,     1.3320097 ]
  - # 14
    frequency:   31.8840798381
    group_velocity: [     1.8252215,     0.0000000,     1.8252215 ]
  - # 15
    frequency:   31.8840798381
    group_velocity: [     1.8252215,     0.0000000,     1.8252215 ]
  - # 16
    frequency:   35.3544383071
    group_velocity: [   -31.1901879,     0.0000000,   -31.1901879 ]
  - # 17
    frequency:   35.3544383071
    group_velocity: [   -31.1901879,     0.0000000,   -31.1901879 ]
  - # 18
    frequency:   35.7362536906
    group_velocity: [    -6.7358539,     0.0000000,    -6.7358539 ]
  - # 19
    frequency:   35.7990939659
    group_velocity: [     1.9959755,     0.0000000,     1.9959755 ]
  - # 20
    frequency:   36.1715004445
    group_velocity: [    25.2293330,     0.0000000,    25.2293330 ]
  - # 21
    frequency:   36.1715004445
    group_velocity: [    25.2293330,     0.0000000,    25.2293330 ]
  - # 22
    frequency:   38.7621019793
    group_velocity: [    -2.3901596,     0.0000000,    -2.3901596 ]
  - # 23
    frequency:   38.7662388785
    group_velocity: [    -1.8224998,     0.0000000,    -1.8224998 ]
  - # 24
    frequency:   38.7820335384
    group_velocity: [     0.3734390,     0.0000000,     0.3734390 ]

- q-position: [    0.0384615,    0.0000000,    0.0384615 ]
  distance:    0.0152246
  band:
  - # 1
    frequency:    1.7410452076
    group_velocity: [    80.6117737,     0.0000000,    80.6117737 ]
  - # 2
    frequency:    1.8774131626
    group_velocity: [    87.1959336,     0.0000000,    87.1959336 ]
  - # 3
    frequency:    2.7365132796
    group_velocity: [   126.5596803,     0.0000000,   126.5596803 ]
  - # 4
    frequency:   23.3683859258
    group_velocity: [    -1.9330012,     0.0000000,    -1.9330012 ]
  - # 5
    frequency:   23.3683859258
    group_velocity: [    -1.9330012,     0.0000000,    -1.9330012 ]
  - # 6
    frequency:   23.3714978085
    group_velocity: [    -1.4975636,     0.0000000,    -1.4975636 ]
  - # 7
    frequency:   23.3714978085
    group_velocity: [    -1.4975636,     0.0000000,    -1.4975636 ]
  - # 8
    frequency:   23.3739248495
    group_velocity: [    -1.3561443,     0.0000000,    -1.3561443 ]
  - # 9
    frequency:   23.5574354814
    group_velocity: [    15.5907887,     0.0000000,    15.5907887 ]
  - # 10
    frequency:   31.8095816981
    group_velocity: [    -5.6811582,     0.0000000,    -5.6811582 ]
  - # 11
    frequency:   31.8831631538
    group_velocity: [     1.1025351,     0.0000000,     1.1025351 ]
  - # 12
    frequency:   31.8925746335
    group_velocity: [     1.6207316,     0.0000000,     1.6207316 ]
  - # 13
    frequency:   31.8925746335
    group_velocity: [     1.6207316,     0.0000000,     1.6207316 ]
  - # 14
    frequency:   31.9006986980
    group_velocity: [     2.8097250,     0.0000000,     2.8097250 ]
  - # 15
    frequency:   31.9006986980
    group_velocity: [     2.8097250,     0.0000000,     2.8097250 ]
  - # 16
    frequency:   35.1274108847
    group_velocity: [   -32.0046292,     0.0000000,   -32.0046292 ]
  - # 17
    frequency:   35.1274108847
    group_velocity: [   -32.0046292,     0.0000000,   -32.0046292 ]
  - # 18
    frequency:   35.6759304915
    group_velocity: [   -10.0685765,     0.0000000,   -10.0685765 ]
  - # 19
    frequency:   35.8168399815
    group_velocity: [     2.9406938,     0.0000000,     2.9406938 ]
  - # 20
    frequency:   36.3460416716
    group_velocity: [    23.3979593,     0.0000000,    23.3979593 ]
  - # 21
    frequency:   36.3460416716
    group_velocity: [    23.3979593,     0.0000000,    23.3979593 ]
  - # 22
    frequency:   38.7407526700
    group_velocity: [    -3.5540898,     0.0000000,    -3.5540898 ]
  - # 23
    frequency:   38.7498844393
    group_velocity: [    -2.7352303,     0.0000000,    -2.7352303 ]
  - # 24
    frequency:   38.7853253511
    group_velocity: [     0.5406536,     0.0000000,     0.5406536 ]

- q-position: [    0.0512821,    0.0000000,    0.0512821 ]
  distance:    0.0202995
  band:
  - # 1
    frequency:    2.3185987915
    group_velocity: [    80.3216732,     0.0000000,    80.3216732 ]
  - # 2
    frequency:    2.5032052978
    group_velocity: [    87.1930097,     0.0000000,    87.1930097 ]
  - # 3
    frequency:    3.6426887952
    group_velocity: [   125.9349683,     0.0000000,   125.9349683 ]
  - # 4
    frequency:   23.3518382807
    group_velocity: [    -2.6883558,     0.0000000,    -2.6883558 ]
  - # 5
    frequency:   23.3518382807
    group_velocity: [    -2.6883558,     0.0000000,    -2.6883558 ]
  - # 6
    frequency:   23.3592508148
    group_velocity: [    -1.9080261,     0.0000000,    -1.9080261 ]
  - # 7
    frequency:   23.3592508148
    group_velocity: [    -1.9080261,     0.0000000,    -1.9080261 ]
  - # 8
    frequency:   23.3624645772
    group_velocity: [    -1.8416112,     0.0000000,    -1.8416112 ]
  - # 9
    frequency:   23.6872364873
    group_velocity: [    20.5520792,     0.0000000,    20.5520792 ]
  - # 10
    frequency:   31.7623502283
    group_velocity: [    -7.4682168,     0.0000000,    -7.4682168 ]
  - # 11
    frequency:   31.8924105308
    group_velocity: [     1.4750683,     0.0000000,     1.4750683 ]
  - # 12
    frequency:   31.9040158278
    group_velocity: [     1.4810472,     0.0000000,     1.4810472 ]
  - # 13
    frequency:   31.9040158278
    group_velocity: [     1.4810472,     0.0000000,     1.4810472 ]
  - # 14
    frequency:   31.9244369884
    group_velocity: [     3.8055795,     0.0000000,     3.8055795 ]
  - # 15
    frequency:   31.9244369884
    group_velocity: [     3.8055795,     0.0000000,     3.8055795 ]
  - # 16
    frequency:   34.8962648544
    group_velocity: [   -32.3079976,     0.0000000,   -32.3079976 ]
  - # 17
    frequency:   34.8962648544
    group_velocity: [   -32.3079976,     0.0000000,   -32.3079976 ]
  - # 18
    frequency:   35.5918306482
    group_velocity: [   -13.3594362,     0.0000000,   -13.3594362 ]
  - # 19
    frequency:   35.8411608818
    group_velocity: [     3.8255625,     0.0000000,     3.8255625 ]
  - # 20
    frequency:   36.5072113824
    group_velocity: [    21.5075367,     0.0000000,    21.5075367 ]
  - # 21
    frequency:   36.5072113824
    group_velocity: [    21.5075367,     0.0000000,    21.5075367 ]
  - # 22
    frequency:   38.7111754232
    group_velocity: [    -4.6810613,     0.0000000,    -4.6810613 ]
  - # 23
    frequency:   38.7269738231
    group_velocity: [    -3.6495705,     0.0000000,    -3.6495705 ]
  - # 24
    frequency:   38.7897385292
    group_velocity: [     0.6846804,     0.0000000,     0.6846804 ]

- q-position: [    0.0641026,    0.0000000,    0.0641026 ]
  distance:    0.0253743
  band:
  - # 1
    frequency:    2.8937823288
    group_velocity: [    79.9516583,     0.0000000,    79.9516583 ]
  - # 2
    frequency:    3.1289597931
    group_velocity: [    87.1850075,     0.0000000,    87.1850075 ]
  - # 3
    frequency:    4.5437501506
    group_velocity: [   125.1348733,     0.0000000,   125.1348733 ]
  - # 4
    frequency:   23.3296484271
    group_velocity: [    -3.5060604,     0.0000000,    -3.5060604 ]
  - # 5
    frequency:   23.3296484271
    group_velocity: [    -3.5060604,     0.0000000,    -3.5060604 ]
  - # 6
    frequency:   23.3442149415
    group_velocity: [    -2.2746946,     0.0000000,    -2.2746946 ]
  - # 7
    frequency:   23.3442149415
    group_velocity: [    -2.2746946,     0.0000000,    -2.2746946 ]
  - # 8
    frequency:   23.3474237217
    group_velocity: [    -2.3550047,     0.0000000,    -2.3550047 ]
  - # 9
    frequency:   23.8519736183
    group_velocity: [    25.3195303,     0.0000000,    25.3195303 ]
  - # 10
    frequency:   31.7025825038
    group_velocity: [    -9.1723383,     0.0000000,    -9.1723383 ]
  - # 11
    frequency:   31.9043466432
    group_velocity: [     1.8520025,     0.0000000,     1.8520025 ]
  - # 12
    frequency:   31.9123144596
    group_velocity: [     0.7036340,     0.0000000,     0.7036340 ]
  - # 13
    frequency:   31.9123144596
    group_velocity: [     0.7036340,     0.0000000,     0.7036340 ]
  - # 14
    frequency:   31.9553049111
    group_velocity: [     4.7937813,     0.0000000,     4.7937813 ]
  - # 15
    frequency:   31.9553049111
    group_velocity: [     4.7937813,     0.0000000,     4.7937813 ]
  - # 16
    frequency:   34.6653981736
    group_velocity: [   -31.8842945,     0.0000000,   -31.8842945 ]
  - # 17
    frequency:   34.6653981736
    group_velocity: [   -31.8842945,     0.0000000,   -31.8842945 ]
  - # 18
    frequency:   35.4843027104
    group_velocity: [   -16.5951049,     0.0000000,   -16.5951049 ]
  - # 19
    frequency:   35.8715749337
    group_velocity: [     4.6366841,     0.0000000,     4.6366841 ]
  - # 20
    frequency:   36.6546746515
    group_velocity: [    19.5819343,     0.0000000,    19.5819343 ]
  - # 21
    frequency:   36.6546746515
    group_velocity: [    19.5819343,     0.0000000,    19.5819343 ]
  - # 22
    frequency:   38.6736775106
    group_velocity: [    -5.7594501,     0.0000000,    -5.7594501 ]
  - # 23
    frequency:   38.6974944162
    group_velocity: [    -4.5657824,     0.0000000,    -4.5657824 ]
  - # 24
    frequency:   38.7950800463
    group_velocity: [     0.7981482,     0.0000000,     0.7981482 ]

- q-position: [    0.0769231,    0.0000000,    0.0769231 ]
  distance:    0.0304492
  band:
  - # 1
    frequency:    3.4660302031
    group_velocity: [    79.5040051,     0.0000000,    79.5040051 ]
  - # 2
    frequency:    3.7546300930
    group_velocity: [    87.1690172,     0.0000000,    87.1690172 ]
  - # 3
    frequency:    5.4384468808
    group_velocity: [   124.1617745,     0.0000000,   124.1617745 ]
  - # 4
    frequency:   23.3013525922
    group_velocity: [    -4.3906875,     0.0000000,    -4.3906875 ]
  - # 5
    frequency:   23.3013525922
    group_velocity: [    -4.3906875,     0.0000000,    -4.3906875 ]
  - # 6
    frequency:   23.3267060853
    group_velocity: [    -2.5970490,     0.0000000,    -2.5970490 ]
  - # 7
    frequency:   23.3267060853
    group_velocity: [    -2.5970490,     0.0000000,    -2.5970490 ]
  - # 8
    frequency:   23.3285796471
    group_velocity: [    -2.9024287,     0.0000000,    -2.9024287 ]
  - # 9
    frequency:   24.0501129398
    group_velocity: [    29.8542274,     0.0000000,    29.8542274 ]
  - # 10
    frequency:   31.6309181254
    group_velocity: [   -10.7818724,     0.0000000,   -10.7818724 ]
  - # 11
    frequency:   31.9119022821
    group_velocity: [    -1.0014603,     0.0000000,    -1.0014603 ]
  - # 12
    frequency:   31.9119022821
    group_velocity: [    -1.0014603,     0.0000000,    -1.0014603 ]
  - # 13
    frequency:   31.9190073939
    group_velocity: [     2.2345509,     0.0000000,     2.2345509 ]
  - # 14
    frequency:   31.9931928251
    group_velocity: [     5.7596979,     0.0000000,     5.7596979 ]
  - # 15
    frequency:   31.9931928251
    group_velocity: [     5.7596979,     0.0000000,     5.7596979 ]
  - # 16
    frequency:   34.4410448428
    group_velocity: [   -30.4366933,     0.0000000,   -30.4366933 ]
  - # 17
    frequency:   34.4410448428
    group_velocity: [   -30.4366933,     0.0000000,   -30.4366933 ]
  - # 18
    frequency:   35.3537891061
    group_velocity: [   -19.7627674,     0.0000000,   -19.7627674 ]
  - # 19
    frequency:   35.9075147725
    group_velocity: [     5.3640991,     0.0000000,     5.3640991 ]
  - # 20
    frequency:   36.7882505306
    group_velocity: [    17.6404417,     0.0000000,    17.6404417 ]
  - # 21
    frequency:   36.7882505306
    group_velocity: [    17.6404417,     0.0000000,    17.6404417 ]
  - # 22
    frequency:   38.6286476102
    group_velocity: [    -6.7782175,     0.0000000,    -6.7782175 ]
  - # 23
    frequency:   38.6614325084
    group_velocity: [    -5.4839013,     0.0000000,    -5.4839013 ]
  - # 24
    frequency:   38.8011050006
    group_velocity: [     0.8739830,     0.0000000,     0.8739830 ]

- q-position: [    0.0897436,    0.0000000,    0.0897436 ]
  distance:    0.0355241
  band:
  - # 1
    frequency:    4.0347945995
    group_velocity: [    78.9813976,     0.0000000,    78.9813976 ]
  - # 2
    frequency:    4.3801469179
    group_velocity: [    87.1416368,     0.0000000,    87.1416368 ]
  - # 3
    frequency:    6.3255473473
    group_velocity: [   123.0185406,     0.0000000,   123.0185406 ]
  - # 4
    frequency:   23.2664536264
    group_velocity: [    -5.3469456,     0.0000000,    -5.3469456 ]
  - # 5
    frequency:   23.2664536264
    group_velocity: [    -5.3469456,     0.0000000,    -5.3469456 ]
  - # 6
    frequency:   23.3056678452
    group_velocity: [    -3.4894330,     0.0000000,    -3.4894330 ]
  - # 7
    frequency:   23.3070453418
    group_velocity: [    -2.8741888,     0.0000000,    -2.8741888 ]
  - # 8
    frequency:   23.3070453418
    group_velocity: [    -2.8741888,     0.0000000,    -2.8741888 ]
  - # 9
    frequency:   24.2798605569
    group_velocity: [    34.1227196,     0.0000000,    34.1227196 ]
  - # 10
    frequency:   31.5480652349
    group_velocity: [   -12.2893185,     0.0000000,   -12.2893185 ]
  - # 11
    frequency:   31.8948750732
    group_velocity: [    -3.9864083,     0.0000000,    -3.9864083 ]
  - # 12
    frequency:   31.8948750732
    group_velocity: [    -3.9864083,     0.0000000,    -3.9864083 ]
  - # 13
    frequency:   31.9364376147
    group_velocity: [     2.6239891,     0.0000000,     2.6239891 ]
  - # 14
    frequency:   32.0378981253
    group_velocity: [     6.6919007,     0.0000000,     6.6919007 ]
  - # 15
    frequency:   32.0378981253
    group_velocity: [     6.6919007,     0.0000000,     6.6919007 ]
  - # 16
    frequency:   34.2318249453
    group_velocity: [   -27.6059263,     0.0000000,   -27.6059263 ]
  - # 17
    frequency:   34.2318249453
    group_velocity: [   -27.6059263,     0.0000000,   -27.6059263 ]
  - # 18
    frequency:   35.2008221002
    group_velocity: [   -22.8502180,     0.0000000,   -22.8502180 ]
  - # 19
    frequency:   35.9483552725
    group_velocity: [     6.0016096,     0.0000000,     6.0016096 ]
  - # 20
    frequency:   36.9078839211
    group_velocity: [    15.6990080,     0.0000000,    15.6990080 ]
  - # 21
    frequency:   36.9078839211
    group_velocity: [    15.6990080,     0.0000000,    15.6990080 ]
  - # 22
    frequency:   38.5765511246
    group_velocity: [    -7.7270427,     0.0000000,    -7.7270427 ]
  - # 23
    frequency:   38.6187750926
    group_velocity: [    -6.4036887,     0.0000000,    -6.4036887 ]
  - # 24
    frequency:   38.8075189733
    group_velocity: [     0.9054698,     0.0000000,     0.9054698 ]

- q-position: [    0.1025641,    0.0000000,    0.1025641 ]
  distance:    0.0405989
  band:
  - # 1
    frequency:    4.5995483735
    group_velocity: [    78.3869066,     0.0000000,    78.3869066 ]
  - # 2
    frequency:    5.0054151563
    group_velocity: [    87.0990888,     0.0000000,    87.0990888 ]
  - # 3
    frequency:    7.2038422652
    group_velocity: [   121.7085317,     0.0000000,   121.7085317 ]
  - # 4
    frequency:   23.2244204460
    group_velocity: [    -6.3795643,     0.0000000,    -6.3795643 ]
  - # 5
    frequency:   23.2244204460
    group_velocity: [    -6.3795643,     0.0000000,    -6.3795643 ]
  - # 6
    frequency:   23.2783862152
    group_velocity: [    -4.1209314,     0.0000000,    -4.1209314 ]
  - # 7
    frequency:   23.2855610974
    group_velocity: [    -3.1050147,     0.0000000,    -3.1050147 ]
  - # 8
    frequency:   23.2855610974
    group_velocity: [    -3.1050147,     0.0000000,    -3.1050147 ]
  - # 9
    frequency:   24.5392031301
    group_velocity: [    38.0973313,     0.0000000,    38.0973313 ]
  - # 10
    frequency:   31.4547721668
    group_velocity: [   -13.6908837,     0.0000000,   -13.6908837 ]
  - # 11
    frequency:   31.8508864089
    group_velocity: [    -8.5471642,     0.0000000,    -8.5471642 ]
  - # 12
    frequency:   31.8508864089
    group_velocity: [    -8.5471642,     0.0000000,    -8.5471642 ]
  - # 13
    frequency:   31.9566915218
    group_velocity: [     3.0216561,     0.0000000,     3.0216561 ]
  - # 14
    frequency:   32.0891453272
    group_velocity: [     7.5814087,     0.0000000,     7.5814087 ]
  - # 15
    frequency:   32.0891453272
    group_velocity: [     7.5814087,     0.0000000,     7.5814087 ]
  - # 16
    frequency:   34.0488526163
    group_velocity: [   -23.0886751,     0.0000000,   -23.0886751 ]
  - # 17
    frequency:   34.0488526163
    group_velocity: [   -23.0886751,     0.0000000,   -23.0886751 ]
  - # 18
    frequency:   35.0260191538
    group_velocity: [   -25.8459295,     0.0000000,   -25.8459295 ]
  - # 19
    frequency:   35.9934388890
    group_velocity: [     6.5462766,     0.0000000,     6.5462766 ]
  - # 20
    frequency:   37.0136248026
    group_velocity: [    13.7710809,     0.0000000,    13.7710809 ]
  - # 21
    frequency:   37.0136248026
    group_velocity: [    13.7710809,     0.0000000,    13.7710809 ]
  - # 22
    frequency:   38.5179245775
    group_velocity: [    -8.5964472,     0.0000000,    -8.5964472 ]
  - # 23
    frequency:   38.5695119785
    group_velocity: [    -7.3245920,     0.0000000,    -7.3245920 ]
  - # 24
    frequency:   38.8139808067
    group_velocity: [     0.8863072,     0.0000000,     0.8863072 ]

- q-position: [    0.1153846,    0.0000000,    0.1153846 ]
  distance:    0.0456738
  band:
  - # 1
    frequency:    5.1597876945
    group_velocity: [    77.7239508,     0.0000000,    77.7239508 ]
  - # 2
    frequency:    5.6303115864
    group_velocity: [    87.0373369,     0.0000000,    87.0373369 ]
  - # 3
    frequency:    8.0721482119
    group_velocity: [   120.2355939,     0.0000000,   120.2355939 ]
  - # 4
    frequency:   23.1746882737
    group_velocity: [    -7.4931853,     0.0000000,    -7.4931853 ]
  - # 5
    frequency:   23.1746882737
    group_velocity: [    -7.4931853,     0.0000000,    -7.4931853 ]
  - # 6
    frequency:   23.2463998781
    group_velocity: [    -4.8011345,     0.0000000,    -4.8011345 ]
  - # 7
    frequency:   23.2625897524
    group_velocity: [    -3.2884265,     0.0000000,    -3.2884265 ]
  - # 8
    frequency:   23.2625897524
    group_velocity: [    -3.2884265,     0.0000000,    -3.2884265 ]
  - # 9
    frequency:   24.8259495282
    group_velocity: [    41.7561696,     0.0000000,    41.7561696 ]
  - # 10
    frequency:   31.3518029934
    group_velocity: [   -14.9858655,     0.0000000,   -14.9858655 ]
  - # 11
    frequency:   31.7684457882
    group_velocity: [   -14.6513283,     0.0000000,   -14.6513283 ]
  - # 12
    frequency:   31.7684457882
    group_velocity: [   -14.6513283,     0.0000000,   -14.6513283 ]
  - # 13
    frequency:   31.9798331539
    group_velocity: [     3.4289490,     0.0000000,     3.4289490 ]
  - # 14
    frequency:   32.1466017472
    group_velocity: [     8.4211978,     0.0000000,     8.4211978 ]
  - # 15
    frequency:   32.1466017472
    group_velocity: [     8.4211978,     0.0000000,     8.4211978 ]
  - # 16
    frequency:   33.9044400901
    group_velocity: [   -16.9096370,     0.0000000,   -16.9096370 ]
  - # 17
    frequency:   33.9044400901
    group_velocity: [   -16.9096370,     0.0000000,   -16.9096370 ]
  - # 18
    frequency:   34.8300779187
    group_velocity: [   -28.7390831,     0.0000000,   -28.7390831 ]
  - # 19
    frequency:   36.0420966990
    group_velocity: [     6.9977508,     0.0000000,     6.9977508 ]
  - # 20
    frequency:   37.1056124827
    group_velocity: [    11.8681857,     0.0000000,    11.8681857 ]
  - # 21
    frequency:   37.1056124827
    group_velocity: [    11.8681857,     0.0000000,    11.8681857 ]
  - # 22
    frequency:   38.4533691542
    group_velocity: [    -9.3779083,     0.0000000,    -9.3779083 ]
  - # 23
    frequency:   38.5136381693
    group_velocity: [    -8.2457117,     0.0000000,    -8.2457117 ]
  - # 24
    frequency:   38.8201057456
    group_velocity: [     0.8106544,     0.0000000,     0.8106544 ]

- q-position: [    0.1282051,    0.0000000,    0.1282051 ]
  distance:    0.0507487
  band:
  - # 1
    frequency:    5.7150343789
    group_velocity: [    76.9962503,     0.0000000,    76.9962503 ]
  - # 2
    frequency:    6.2546834456
    group_velocity: [    86.9522056,     0.0000000,    86.9522056 ]
  - # 3
    frequency:    8.9293110945
    group_velocity: [   118.6040534,     0.0000000,   118.6040534 ]
  - # 4
    frequency:   23.1166596745
    group_velocity: [    -8.6922461,     0.0000000,    -8.6922461 ]
  - # 5
    frequency:   23.1166596745
    group_velocity: [    -8.6922461,     0.0000000,    -8.6922461 ]
  - # 6
    frequency:   23.2093464192
    group_velocity: [    -5.5334978,     0.0000000,    -5.5334978 ]
  - # 7
    frequency:   23.2384750044
    group_velocity: [    -3.4235240,     0.0000000,    -3.4235240 ]
  - # 8
    frequency:   23.2384750044
    group_velocity: [    -3.4235240,     0.0000000,    -3.4235240 ]
  - # 9
    frequency:   25.1377714880
    group_velocity: [    45.0828427,     0.0000000,    45.0828427 ]
  - # 10
    frequency:   31.2399177062
    group_velocity: [   -16.1759973,     0.0000000,   -16.1759973 ]
  - # 11
    frequency:   31.6383442490
    group_velocity: [   -21.6746632,     0.0000000,   -21.6746632 ]
  - # 12
    frequency:   31.6383442490
    group_velocity: [   -21.6746632,     0.0000000,   -21.6746632 ]
  - # 13
    frequency:   32.0059367508
    group_velocity: [     3.8473109,     0.0000000,     3.8473109 ]
  - # 14
    frequency:   32.2098903099
    group_velocity: [     9.2058777,     0.0000000,     9.2058777 ]
  - # 15
    frequency:   32.2098903099