<?xml version="1.0" encoding="ISO-8859-1"?>
<modeling>
 <generator>
  <i name="program" type="string">vasp </i>
  <i name="version" type="string">5.2.12  </i>
  <i name="subversion" type="string">26May11 complex  parallel </i>
  <i name="platform" type="string">LinuxIFC </i>
  <i name="date" type="string">2015 07 09 </i>
  <i name="time" type="string">08:38:37 </i>
 </generator>
 <incar>
  <i type="string" name="PREC">accurate</i>
  <i type="int" name="IALGO">    38</i>
  <i type="logical" name="ADDGRID"> T  </i>
  <i type="int" name="IBRION">     8</i>
  <i name="EDIFF">      0.00000100</i>
  <i type="int" name="NSW">     1</i>
  <i name="ENCUT">    550.00000000</i>
  <i type="logical" name="LREAL"> F  </i>
  <i type="int" name="ISMEAR">     0</i>
  <i name="SIGMA">      0.10000000</i>
  <i type="logical" name="LWAVE"> F  </i>
  <i type="logical" name="LCHARG"> F  </i>
  <i type="logical" name="LPEAD"> F  </i>
  <i type="logical" name="LCALCPOL"> F  </i>
  <i type="logical" name="LCALCEPS"> F  </i>
  <v name="EFIELD_PEAD">      0.00000000      0.00000000      0.00000000</v>
  <i type="logical" name="LEFG"> F  </i>
  <v name="QUAD_EFG">      1.00000000</v>
  <i type="logical" name="LRHFATM"> F  </i>
  <i type="string" name="METAGGA">--</i>
  <i type="int" name="LMAXTAU">     0</i>
 </incar>
 <kpoints>
  <generation param="Monkhorst-Pack">
   <v type="int" name="divisions">      12       12       12 </v>
   <v name="usershift">      0.00000000       0.00000000       0.00000000 </v>
   <v name="genvec1">      0.08333333       0.00000000       0.00000000 </v>
   <v name="genvec2">      0.00000000       0.08333333       0.00000000 </v>
   <v name="genvec3">      0.00000000       0.00000000       0.08333333 </v>
   <v name="shift">      0.50000000       0.50000000       0.50000000 </v>
  </generation>
  <varray name="kpointlist" >
   <v>       0.04166667       0.04166667       0.04166667 </v>
   <v>       0.12500000       0.04166667       0.04166667 </v>
   <v>       0.20833333       0.04166667       0.04166667 </v>
   <v>       0.29166667       0.04166667       0.04166667 </v>
   <v>       0.37500000       0.04166667       0.04166667 </v>
   <v>       0.45833333       0.04166667       0.04166667 </v>
   <v>       0.12500000       0.12500000       0.04166667 </v>
   <v>       0.20833333       0.12500000       0.04166667 </v>
   <v>       0.29166667       0.12500000       0.04166667 </v>
   <v>       0.37500000       0.12500000       0.04166667 </v>
   <v>       0.45833333       0.12500000       0.04166667 </v>
   <v>       0.20833333       0.20833333       0.04166667 </v>
   <v>       0.29166667       0.20833333       0.04166667 </v>
   <v>       0.37500000       0.20833333       0.04166667 </v>
   <v>       0.45833333       0.20833333       0.04166667 </v>
   <v>       0.29166667       0.29166667       0.04166667 </v>
   <v>       0.37500000       0.29166667       0.04166667 </v>
   <v>       0.45833333       0.29166667       0.04166667 </v>
   <v>       0.37500000       0.37500000       0.04166667 </v>
   <v>       0.45833333       0.37500000       0.04166667 </v>
   <v>       0.45833333       0.45833333       0.04166667 </v>
   <v>       0.12500000       0.12500000       0.12500000 </v>
   <v>       0.20833333       0.12500000       0.12500000 </v>
   <v>       0.29166667       0.12500000       0.12500000 </v>
   <v>       0.37500000       0.12500000       0.12500000 </v>
   <v>       0.45833333       0.12500000       0.12500000 </v>
   <v>       0.20833333       0.20833333       0.12500000 </v>
   <v>       0.29166667       0.20833333       0.12500000 </v>
   <v>       0.37500000       0.20833333       0.12500000 </v>
   <v>       0.45833333       0.20833333       0.12500000 </v>
   <v>       0.29166667       0.29166667       0.12500000 </v>
   <v>       0.37500000       0.29166667       0.12500000 </v>
   <v>       0.45833333       0.29166667       0.12500000 </v>
   <v>       0.37500000       0.37500000       0.12500000 </v>
   <v>       0.45833333       0.37500000       0.12500000 </v>
   <v>       0.45833333       0.45833333       0.12500000 </v>
   <v>       0.20833333       0.20833333       0.20833333 </v>
   <v>       0.29166667       0.20833333       0.20833333 </v>
   <v>       0.37500000       0.20833333       0.20833333 </v>
   <v>       0.45833333       0.20833333       0.20833333 </v>
   <v>       0.29166667       0.29166667       0.20833333 </v>
   <v>       0.37500000       0.29166667       0.20833333 </v>
   <v>       0.45833333       0.29166667       0.20833333 </v>
   <v>       0.37500000       0.37500000       0.20833333 </v>
   <v>       0.45833333       0.37500000       0.20833333 </v>
   <v>       0.45833333       0.45833333       0.20833333 </v>
   <v>       0.29166667       0.29166667       0.29166667 </v>
   <v>       0.37500000       0.29166667       0.29166667 </v>
   <v>       0.45833333       0.29166667       0.29166667 </v>
   <v>       0.37500000       0.37500000       0.29166667 </v>
   <v>       0.45833333       0.37500000       0.29166667 </v>
   <v>       0.45833333       0.45833333       0.29166667 </v>
   <v>       0.37500000       0.37500000       0.37500000 </v>
   <v>       0.45833333       0.37500000       0.37500000 </v>
   <v>       0.45833333       0.45833333       0.37500000 </v>
   <v>       0.45833333       0.45833333       0.45833333 </v>
  </varray>
  <varray name="weights" >
   <v>       0.00462963 </v>
   <v>       0.01388889 </v>
   <v>       0.01388889 </v>
   <v>       0.01388889 </v>
   <v>       0.01388889 </v>
   <v>       0.01388889 </v>
   <v>       0.01388889 </v>
   <v>       0.02777778 </v>
   <v>       0.02777778 </v>
   <v>       0.02777778 </v>
   <v>       0.02777778 </v>
   <v>       0.01388889 </v>
   <v>       0.02777778 </v>
   <v>       0.02777778 </v>
   <v>       0.02777778 </v>
   <v>       0.01388889 </v>
   <v>       0.02777778 </v>
   <v>       0.02777778 </v>
   <v>       0.01388889 </v>
   <v>       0.02777778 </v>
   <v>       0.01388889 </v>
   <v>       0.00462963 </v>
   <v>       0.01388889 </v>
   <v>       0.01388889 </v>
   <v>       0.01388889 </v>
   <v>       0.01388889 </v>
   <v>       0.01388889 </v>
   <v>       0.02777778 </v>
   <v>       0.02777778 </v>
   <v>       0.02777778 </v>
   <v>       0.01388889 </v>
   <v>       0.02777778 </v>
   <v>       0.02777778 </v>
   <v>       0.01388889 </v>
   <v>       0.02777778 </v>
   <v>       0.01388889 </v>
   <v>       0.00462963 </v>
   <v>       0.01388889 </v>
   <v>       0.01388889 </v>
   <v>       0.01388889 </v>
   <v>       0.01388889 </v>
   <v>       0.02777778 </v>
   <v>       0.02777778 </v>
   <v>       0.01388889 </v>
   <v>       0.02777778 </v>
   <v>       0.01388889 </v>
   <v>       0.00462963 </v>
   <v>       0.01388889 </v>
   <v>       0.01388889 </v>
   <v>       0.01388889 </v>
   <v>       0.02777778 </v>
   <v>       0.01388889 </v>
   <v>       0.00462963 </v>
   <v>       0.01388889 </v>
   <v>       0.01388889 </v>
   <v>       0.00462963 </v>
  </varray>
 </kpoints>
 <parameters>
  <separator name="general" >
   <i type="string" name="SYSTEM">unknown system</i>
   <i type="logical" name="LCOMPAT"> F  </i>
  </separator>
  <separator name="electronic" >
   <i type="string" name="PREC">accura</i>
   <i name="ENMAX">    550.00000000</i>
   <i name="ENAUG">    644.87300000</i>
   <i name="EDIFF">      0.00000100</i>
   <i type="int" name="IALGO">    38</i>
   <i type="int" name="IWAVPR">    11</i>
   <i type="int" name="NBANDS">   176</i>
   <i name="NELECT">    256.00000000</i>
   <i type="int" name="TURBO">     0</i>
   <i type="int" name="IRESTART">     0</i>
   <i type="int" name="NREBOOT">     0</i>
   <i type="int" name="NMIN">     0</i>
   <i name="EREF">      0.00000000</i>
   <separator name="electronic smearing" >
    <i type="int" name="ISMEAR">     0</i>
    <i name="SIGMA">      0.10000000</i>
    <i name="KSPACING">      0.50000000</i>
    <i type="logical" name="KGAMMA"> T  </i>
   </separator>
   <separator name="electronic projectors" >
    <i type="logical" name="LREAL"> F  </i>
    <v name="ROPT">      0.00000000</v>
    <i type="int" name="LMAXPAW">  -100</i>
    <i type="int" name="LMAXMIX">     2</i>
   </separator>
   <separator name="electronic startup" >
    <i type="int" name="ISTART">     0</i>
    <i type="int" name="ICHARG">     2</i>
    <i type="int" name="INIWAV">     1</i>
   </separator>
   <separator name="electronic spin" >
    <i type="int" name="ISPIN">     1</i>
    <i type="logical" name="LNONCOLLINEAR"> F  </i>
    <v name="MAGMOM">      1.00000000      1.00000000      1.00000000      1.00000000      1.00000000      1.00000000      1.00000000      1.00000000      1.00000000      1.00000000      1.00000000      1.00000000      1.00000000      1.00000000      1.00000000      1.00000000      1.00000000      1.00000000      1.00000000      1.00000000
      1.00000000      1.00000000      1.00000000      1.00000000      1.00000000      1.00000000      1.00000000      1.00000000      1.00000000      1.00000000      1.00000000      1.00000000      1.00000000      1.00000000      1.00000000      1.00000000      1.00000000      1.00000000      1.00000000      1.00000000
      1.00000000      1.00000000      1.00000000      1.00000000      1.00000000      1.00000000      1.00000000      1.00000000      1.00000000      1.00000000      1.00000000      1.00000000      1.00000000      1.00000000      1.00000000      1.00000000      1.00000000      1.00000000      1.00000000      1.00000000
      1.00000000      1.00000000      1.00000000      1.00000000</v>
    <i name="NUPDOWN">     -1.00000000</i>
    <i type="logical" name="LSORBIT"> F  </i>
    <v name="SAXIS">      0.00000000      0.00000000      1.00000000</v>
    <i type="logical" name="LSPIRAL"> F  </i>
    <v name="QSPIRAL">      0.00000000      0.00000000      0.00000000</v>
    <i type="logical" name="LZEROZ"> F  </i>
   </separator>
   <separator name="electronic exchange-correlation" >
    <i type="logical" name="LASPH"> F  </i>
    <i type="logical" name="LMETAGGA"> F  </i>
   </separator>
   <separator name="electronic convergence" >
    <i type="int" name="NELM">    60</i>
    <i type="int" name="NELMDL">     0</i>
    <i type="int" name="NELMIN">     2</i>
    <i name="ENINI">    550.00000000</i>
    <separator name="electronic convergence detail" >
     <i type="logical" name="LDIAG"> T  </i>
     <i type="logical" name="LSUBROT"> T  </i>
     <i name="WEIMIN">      0.00100000</i>
     <i name="EBREAK">      0.00000000</i>
     <i name="DEPER">      0.30000000</i>
     <i type="int" name="NRMM">     4</i>
     <i name="TIME">      0.40000000</i>
    </separator>
   </separator>
   <separator name="electronic mixer" >
    <i name="AMIX">      0.40000000</i>
    <i name="BMIX">      1.00000000</i>
    <i name="AMIN">      0.10000000</i>
    <i name="AMIX_MAG">      1.60000000</i>
    <i name="BMIX_MAG">      1.00000000</i>
    <separator name="electronic mixer details" >
     <i type="int" name="IMIX">     4</i>
     <i type="int" name="MAXMIX">   -45</i>
     <i name="WC">    100.00000000</i>
     <i type="int" name="INIMIX">     1</i>
     <i type="int" name="MIXPRE">     1</i>
     <i type="int" name="MREMOVE">     5</i>
    </separator>
   </separator>
   <separator name="electronic dipolcorrection" >
    <i type="logical" name="LDIPOL"> F  </i>
    <i type="logical" name="LMONO"> F  </i>
    <i type="int" name="IDIPOL">     0</i>
    <i name="EPSILON">      1.00000000</i>
    <v name="DIPOL">   -100.00000000   -100.00000000   -100.00000000</v>
    <i name="EFIELD">      0.00000000</i>
   </separator>
  </separator>
  <separator name="grids" >
   <i type="int" name="NGX">    56</i>
   <i type="int" name="NGY">    56</i>
   <i type="int" name="NGZ">    56</i>
   <i type="int" name="NGXF">   112</i>
   <i type="int" name="NGYF">   112</i>
   <i type="int" name="NGZF">   112</i>
   <i type="logical" name="ADDGRID"> T  </i>
  </separator>
  <separator name="ionic" >
   <i type="int" name="NSW">     1</i>
   <i type="int" name="IBRION">     8</i>
   <i type="int" name="ISIF">     2</i>
   <i name="PSTRESS">      0.00000000</i>
   <i name="EDIFFG">      0.00001000</i>
   <i type="int" name="NFREE">     0</i>
   <i name="POTIM">      0.50000000</i>
   <i name="SMASS">     -3.00000000</i>
   <i name="SCALEE">      1.00000000</i>
  </separator>
  <separator name="ionic md" >
   <i name="TEBEG">      0.00010000</i>
   <i name="TEEND">      0.00010000</i>
   <i type="int" name="NBLOCK">     1</i>
   <i type="int" name="KBLOCK">     1</i>
   <i type="int" name="NPACO">   256</i>
   <i name="APACO">     16.00000000</i>
  </separator>
  <separator name="symmetry" >
   <i type="int" name="ISYM">     2</i>
   <i name="SYMPREC">      0.00001000</i>
  </separator>
  <separator name="dos" >
   <i type="logical" name="LORBIT"> F  </i>
   <v name="RWIGS">     -1.00000000</v>
   <i type="int" name="NEDOS">   301</i>
   <i name="EMIN">     10.00000000</i>
   <i name="EMAX">    -10.00000000</i>
   <i name="EFERMI">      0.00000000</i>
  </separator>
  <separator name="writing" >
   <i type="int" name="NWRITE">     2</i>
   <i type="logical" name="LWAVE"> F  </i>
   <i type="logical" name="LCHARG"> F  </i>
   <i type="logical" name="LPARD"> F  </i>
   <i type="logical" name="LVTOT"> F  </i>
   <i type="logical" name="LVHAR"> F  </i>
   <i type="logical" name="LELF"> F  </i>
   <i type="logical" name="LOPTICS"> F  </i>
   <v name="STM">      0.00000000      0.00000000      0.00000000      0.00000000      0.00000000      0.00000000      0.00000000</v>
  </separator>
  <separator name="performance" >
   <i type="int" name="NPAR">    16</i>
   <i type="int" name="NSIM">     4</i>
   <i type="int" name="NBLK">    -1</i>
   <i type="logical" name="LPLANE"> T  </i>
   <i type="logical" name="LSCALAPACK"> F  </i>
   <i type="logical" name="LSCAAWARE"> F  </i>
   <i type="logical" name="LSCALU"> F  </i>
   <i type="logical" name="LASYNC"> F  </i>
   <i type="logical" name="LORBITALREAL"> F  </i>
  </separator>
  <separator name="miscellaneous" >
   <i type="int" name="IDIOT">     3</i>
   <i type="logical" name="LMUSIC"> F  </i>
   <v name="POMASS">     12.01100000</v>
   <v name="DARWINR">      0.00000000</v>
   <v name="DARWINV">      1.00000000</v>
   <i type="logical" name="LCORR"> T  </i>
  </separator>
  <i type="logical" name="GGA_COMPAT"> T  </i>
  <i type="logical" name="LBERRY"> F  </i>
  <i type="int" name="ICORELEVEL">     0</i>
  <i type="logical" name="LDAU"> F  </i>
  <i type="int" name="I_CONSTRAINED_M">     0</i>
  <separator name="electronic exchange-correlation" >
   <i type="string" name="GGA">--</i>
   <i type="int" name="VOSKOWN">     0</i>
   <i type="logical" name="LHFCALC"> F  </i>
   <i type="string" name="PRECFOCK"></i>
   <i type="logical" name="LHFONE"> F  </i>
   <i type="logical" name="LRHFCALC"> F  </i>
   <i type="logical" name="LTHOMAS"> F  </i>
   <i type="logical" name="LMODELHF"> F  </i>
   <i name="ENCUT4O">     -1.00000000</i>
   <i type="int" name="EXXOEP">     0</i>
   <i type="int" name="FOURORBIT">     0</i>
   <i name="AEXX">      0.00000000</i>
   <i name="HFALPHA">      0.00000000</i>
   <i name="ALDAX">      1.00000000</i>
   <i name="AGGAX">      1.00000000</i>
   <i name="ALDAC">      1.00000000</i>
   <i name="AGGAC">      1.00000000</i>
   <i type="int" name="NKREDX">     1</i>
   <i type="int" name="NKREDY">     1</i>
   <i type="int" name="NKREDZ">     1</i>
   <i type="logical" name="SHIFTRED"> F  </i>
   <i type="logical" name="ODDONLY"> F  </i>
   <i type="logical" name="EVENONLY"> F  </i>
   <i type="int" name="LMAXFOCK">     0</i>
   <i type="int" name="NMAXFOCKAE">     0</i>
   <i type="logical" name="LFOCKAEDFT"> F  </i>
   <i name="HFSCREEN">      0.00000000</i>
   <i name="HFSCREENC">      0.00000000</i>
  </separator>
  <separator name="model GW" >
   <i type="int" name="MODEL_GW">     0</i>
   <i name="MODEL_EPS0">      3.42017820</i>
   <i name="MODEL_ALPHA">      1.00000000</i>
  </separator>
  <separator name="linear response parameters" >
   <i type="logical" name="LEPSILON"> F  </i>
   <i type="logical" name="LRPA"> F  </i>
   <i type="logical" name="LNABLA"> F  </i>
   <i type="logical" name="LVEL"> F  </i>
   <i type="int" name="KINTER">     0</i>
   <i name="CSHIFT">      0.10000000</i>
   <i name="OMEGAMAX">     -1.00000000</i>
  </separator>
  <separator name="orbital magnetization" >
   <i type="logical" name="NUCIND"> F  </i>
   <v name="MAGPOS">      0.00000000      0.00000000      0.00000000</v>
   <i type="logical" name="LNICSALL"> T  </i>
   <i type="logical" name="ORBITALMAG"> F  </i>
   <i type="logical" name="LMAGBLOCH"> F  </i>
   <i type="logical" name="LCHIMAG"> F  </i>
   <i type="logical" name="LGAUGE"> T  </i>
   <i type="int" name="MAGATOM">     0</i>
   <v name="MAGDIPOL">      0.00000000      0.00000000      0.00000000</v>
   <v name="AVECCONST">      0.00000000      0.00000000      0.00000000</v>
  </separator>
  <separator name="response functions" >
   <i type="logical" name="LADDER"> F  </i>
   <i type="logical" name="LHARTREE"> T  </i>
   <i type="int" name="IBSE">     0</i>
   <i type="logical" name="LTCTE"> F  </i>
   <i type="logical" name="LTETE"> F  </i>
   <i type="logical" name="L2ORDER"> F  </i>
   <i type="logical" name="LUSEW"> F  </i>
   <i name="ENCUTGW">     -2.00000000</i>
   <i name="ENCUTGWSOFT">     -2.00000000</i>
   <i name="ENCUTLF">     -1.00000000</i>
   <i type="int" name="LMAXMP2">    -1</i>
   <i name="SCISSOR">      0.00000000</i>
   <i type="int" name="NOMEGA">     0</i>
   <i type="int" name="NOMEGAR">     0</i>
   <i type="int" name="NBANDSGW">    -1</i>
   <i type="int" name="NBANDSO">    -1</i>
   <i type="int" name="NBANDSV">    -1</i>
   <i name="OPTEMAX">      0.00000000</i>
   <i type="int" name="NELM">     1</i>
   <i type="int" name="DIM">     3</i>
   <i type="int" name="ANTIRES">     0</i>
   <i name="OMEGAMAX">    -30.00000000</i>
   <i name="OMEGATL">   -200.00000000</i>
   <i type="int" name="OMEGAGRID">     0</i>
   <i name="CSHIFT">     -0.10000000</i>
   <i type="logical" name="SELFENERGY"> F  </i>
   <i type="logical" name="LSPECTRAL"> F  </i>
   <i type="logical" name="ODDONLYGW"> F  </i>
   <i type="logical" name="EVENONLYGW"> F  </i>
   <i type="int" name="NKREDLFX">     1</i>
   <i type="int" name="NKREDLFY">     1</i>
   <i type="int" name="NKREDLFZ">     1</i>
   <i type="int" name="MAXMEM">  1800</i>
   <i type="int" name="TELESCOPE">     0</i>
  </separator>
 </parameters>
 <atominfo>
  <atoms>      64 </atoms>
  <types>       1 </types>
  <array name="atoms" >
   <dimension dim="1">ion</dimension>
   <field type="string">element</field>
   <field type="int">atomtype</field>
   <set>
    <rc><c>C </c><c>   1</c></rc>
    <rc><c>C </c><c>   1</c></rc>
    <rc><c>C </c><c>   1</c></rc>
    <rc><c>C </c><c>   1</c></rc>
    <rc><c>C </c><c>   1</c></rc>
    <rc><c>C </c><c>   1</c></rc>
    <rc><c>C </c><c>   1</c></rc>
    <rc><c>C </c><c>   1</c></rc>
    <rc><c>C </c><c>   1</c></rc>
    <rc><c>C </c><c>   1</c></rc>
    <rc><c>C </c><c>   1</c></rc>
    <rc><c>C </c><c>   1</c></rc>
    <rc><c>C </c><c>   1</c></rc>
    <rc><c>C </c><c>   1</c></rc>
    <rc><c>C </c><c>   1</c></rc>
    <rc><c>C </c><c>   1</c></rc>
    <rc><c>C </c><c>   1</c></rc>
    <rc><c>C </c><c>   1</c></rc>
    <rc><c>C </c><c>   1</c></rc>
    <rc><c>C </c><c>   1</c></rc>
    <rc><c>C </c><c>   1</c></rc>
    <rc><c>C </c><c>   1</c></rc>
    <rc><c>C </c><c>   1</c></rc>
    <rc><c>C </c><c>   1</c></rc>
    <rc><c>C </c><c>   1</c></rc>
    <rc><c>C </c><c>   1</c></rc>
    <rc><c>C </c><c>   1</c></rc>
    <rc><c>C </c><c>   1</c></rc>
    <rc><c>C </c><c>   1</c></rc>
    <rc><c>C </c><c>   1</c></rc>
    <rc><c>C </c><c>   1</c></rc>
    <rc><c>C </c><c>   1</c></rc>
    <rc><c>C </c><c>   1</c></rc>
    <rc><c>C </c><c>   1</c></rc>
    <rc><c>C </c><c>   1</c></rc>
    <rc><c>C </c><c>   1</c></rc>
    <rc><c>C </c><c>   1</c></rc>
    <rc><c>C </c><c>   1</c></rc>
    <rc><c>C </c><c>   1</c></rc>
    <rc><c>C </c><c>   1</c></rc>
    <rc><c>C </c><c>   1</c></rc>
    <rc><c>C </c><c>   1</c></rc>
    <rc><c>C </c><c>   1</c></rc>
    <rc><c>C </c><c>   1</c></rc>
    <rc><c>C </c><c>   1</c></rc>
    <rc><c>C </c><c>   1</c></rc>
    <rc><c>C </c><c>   1</c></rc>
    <rc><c>C </c><c>   1</c></rc>
    <rc><c>C </c><c>   1</c></rc>
    <rc><c>C </c><c>   1</c></rc>
    <rc><c>C </c><c>   1</c></rc>
    <rc><c>C </c><c>   1</c></rc>
    <rc><c>C </c><c>   1</c></rc>
    <rc><c>C </c><c>   1</c></rc>
    <rc><c>C </c><c>   1</c></rc>
    <rc><c>C </c><c>   1</c></rc>
    <rc><c>C </c><c>   1</c></rc>
    <rc><c>C </c><c>   1</c></rc>
    <rc><c>C </c><c>   1</c></rc>
    <rc><c>C </c><c>   1</c></rc>
    <rc><c>C </c><c>   1</c></rc>
    <rc><c>C </c><c>   1</c></rc>
    <rc><c>C </c><c>   1</c></rc>
    <rc><c>C </c><c>   1</c></rc>
   </set>
  </array>
  <array name="atomtypes" >
   <dimension dim="1">type</dimension>
   <field type="int">atomspertype</field>
   <field type="string">element</field>
   <field>mass</field>
   <field>valence</field>
   <field type="string">pseudopotential</field>
   <set>
    <rc><c>  64</c><c>C </c><c>     12.01100000</c><c>      4.00000000</c><c>  PAW_PBE C 08Apr2002                   </c></rc>
   </set>
  </array>
 </atominfo>
 <structure name="initialpos" >
  <crystal>
   <varray name="basis" >
    <v>       7.14538805       0.00000000       0.00000000 </v>
    <v>       0.00000000       7.14538805       0.00000000 </v>
    <v>       0.00000000       0.00000000       7.14538805 </v>
   </varray>
   <i name="volume">    364.81900807 </i>
   <varray name="rec_basis" >
    <v>       0.13995041       0.00000000       0.00000000 </v>
    <v>       0.00000000       0.13995041       0.00000000 </v>
    <v>       0.00000000       0.00000000       0.13995041 </v>
   </varray>
  </crystal>
  <varray name="positions" >
   <v>       0.00000000       0.00000000       0.00000000 </v>
   <v>       0.50000000       0.00000000       0.00000000 </v>
   <v>       0.00000000       0.50000000       0.00000000 </v>
   <v>       0.50000000       0.50000000       0.00000000 </v>
   <v>       0.00000000       0.00000000       0.50000000 </v>
   <v>       0.50000000       0.00000000       0.50000000 </v>
   <v>       0.00000000       0.50000000       0.50000000 </v>
   <v>       0.50000000       0.50000000       0.50000000 </v>
   <v>       0.00000000       0.25000000       0.25000000 </v>
   <v>       0.50000000       0.25000000       0.25000000 </v>
   <v>       0.00000000       0.75000000       0.25000000 </v>
   <v>       0.50000000       0.75000000       0.25000000 </v>
   <v>       0.00000000       0.25000000       0.75000000 </v>
   <v>       0.50000000       0.25000000       0.75000000 </v>
   <v>       0.00000000       0.75000000       0.75000000 </v>
   <v>       0.50000000       0.75000000       0.75000000 </v>
   <v>       0.25000000       0.25000000       0.00000000 </v>
   <v>       0.75000000       0.25000000       0.00000000 </v>
   <v>       0.25000000       0.75000000       0.00000000 </v>
   <v>       0.75000000       0.75000000       0.00000000 </v>
   <v>       0.25000000       0.25000000       0.50000000 </v>
   <v>       0.75000000       0.25000000       0.50000000 </v>
   <v>       0.25000000       0.75000000       0.50000000 </v>
   <v>       0.75000000       0.75000000       0.50000000 </v>
   <v>       0.25000000       0.00000000       0.25000000 </v>
   <v>       0.75000000       0.00000000       0.25000000 </v>
   <v>       0.25000000       0.50000000       0.25000000 </v>
   <v>       0.75000000       0.50000000       0.25000000 </v>
   <v>       0.25000000       0.00000000       0.75000000 </v>
   <v>       0.75000000       0.00000000       0.75000000 </v>
   <v>       0.25000000       0.50000000       0.75000000 </v>
   <v>       0.75000000       0.50000000       0.75000000 </v>
   <v>       0.37500000       0.12500000       0.37500000 </v>
   <v>       0.87500000       0.12500000       0.37500000 </v>
   <v>       0.37500000       0.62500000       0.37500000 </v>
   <v>       0.87500000       0.62500000       0.37500000 </v>
   <v>       0.37500000       0.12500000       0.87500000 </v>
   <v>       0.87500000       0.12500000       0.87500000 </v>
   <v>       0.37500000       0.62500000       0.87500000 </v>
   <v>       0.87500000       0.62500000       0.87500000 </v>
   <v>       0.12500000       0.12500000       0.12500000 </v>
   <v>       0.62500000       0.12500000       0.12500000 </v>
   <v>       0.12500000       0.62500000       0.12500000 </v>
   <v>       0.62500000       0.62500000       0.12500000 </v>
   <v>       0.12500000       0.12500000       0.62500000 </v>
   <v>       0.62500000       0.12500000       0.62500000 </v>
   <v>       0.12500000       0.62500000       0.62500000 </v>
   <v>       0.62500000       0.62500000       0.62500000 </v>
   <v>       0.12500000       0.37500000       0.37500000 </v>
   <v>       0.62500000       0.37500000       0.37500000 </v>
   <v>       0.12500000       0.87500000       0.37500000 </v>
   <v>       0.62500000       0.87500000       0.37500000 </v>
   <v>       0.12500000       0.37500000       0.87500000 </v>
   <v>       0.62500000       0.37500000       0.87500000 </v>
   <v>       0.12500000       0.87500000       0.87500000 </v>
   <v>       0.62500000       0.87500000       0.87500000 </v>
   <v>       0.37500000       0.37500000       0.12500000 </v>
   <v>       0.87500000       0.37500000       0.12500000 </v>
   <v>       0.37500000       0.87500000       0.12500000 </v>
   <v>       0.87500000       0.87500000       0.12500000 </v>
   <v>       0.37500000       0.37500000       0.62500000 </v>
   <v>       0.87500000       0.37500000       0.62500000 </v>
   <v>       0.37500000       0.87500000       0.62500000 </v>
   <v>       0.87500000       0.87500000       0.62500000 </v>
  </varray>
 </structure>
 <calculation>
  <scstep>
   <time name="dav">   54.24   54.48</time>
   <time name="total">   55.93   56.59</time>
   <energy>
    <i name="alphaZ">    922.30103501 </i>
    <i name="ewald"> -11116.31849649 </i>
    <i name="hartreedc">   -567.14652398 </i>
    <i name="XCdc">    875.96650539 </i>
    <i name="pawpsdc">   6945.41096832 </i>
    <i name="pawaedc">  -6981.85294008 </i>
    <i name="eentropy">     -0.03178967 </i>
    <i name="bandstr">   1311.11183601 </i>
    <i name="atom">   9417.56165038 </i>
    <i name="e_fr_energy">    807.00224489 </i>
    <i name="e_wo_entrp">    807.03403455 </i>
    <i name="e_0_energy">    807.01813972 </i>
   </energy>
  </scstep>
  <scstep>
   <time name="dav">   55.92   56.02</time>
   <time name="total">   56.19   56.31</time>
   <energy>
    <i name="e_fr_energy">   -540.85495234 </i>
    <i name="e_wo_entrp">   -540.85495234 </i>
    <i name="e_0_energy">   -540.85495234 </i>
   </energy>
  </scstep>
  <scstep>
   <time name="dav">   55.46   56.24</time>
   <time name="total">   55.72   56.58</time>
   <energy>
    <i name="e_fr_energy">   -601.08617995 </i>
    <i name="e_wo_entrp">   -601.08617995 </i>
    <i name="e_0_energy">   -601.08617995 </i>
   </energy>
  </scstep>
  <scstep>
   <time name="dav">   56.93   56.96</time>
   <time name="total">   57.18   57.26</time>
   <energy>
    <i name="e_fr_energy">   -602.08242381 </i>
    <i name="e_wo_entrp">   -602.08242381 </i>
    <i name="e_0_energy">   -602.08242381 </i>
   </energy>
  </scstep>
  <scstep>
   <time name="dav">   54.02   54.91</time>
   <time name="total">   56.73   57.87</time>
   <energy>
    <i name="e_fr_energy">   -602.10105258 </i>
    <i name="e_wo_entrp">   -602.10105258 </i>
    <i name="e_0_energy">   -602.10105258 </i>
   </energy>
  </scstep>
  <scstep>
   <time name="dav">   52.19   52.53</time>
   <time name="total">   54.51   54.96</time>
   <energy>
    <i name="e_fr_energy">   -587.00700552 </i>
    <i name="e_wo_entrp">   -587.00700552 </i>
    <i name="e_0_energy">   -587.00700552 </i>
   </energy>
  </scstep>
  <scstep>
   <time name="dav">   52.43   52.64</time>
   <time name="total">   55.06   55.38</time>
   <energy>
    <i name="e_fr_energy">   -581.94427688 </i>
    <i name="e_wo_entrp">   -581.94427688 </i>
    <i name="e_0_energy">   -581.94427688 </i>
   </energy>
  </scstep>
  <scstep>
   <time name="dav">   71.02   71.04</time>
   <time name="total">   75.47   75.49</time>
   <energy>
    <i name="e_fr_energy">   -581.97982917 </i>
    <i name="e_wo_entrp">   -581.97982917 </i>
    <i name="e_0_energy">   -581.97982917 </i>
   </energy>
  </scstep>
  <scstep>
   <time name="dav">   55.53   55.55</time>
   <time name="total">   57.83   57.85</time>
   <energy>
    <i name="e_fr_energy">   -581.98097497 </i>
    <i name="e_wo_entrp">   -581.98097497 </i>
    <i name="e_0_energy">   -581.98097497 </i>
   </energy>
  </scstep>
  <scstep>
   <time name="dav">   53.66   53.96</time>
   <time name="total">   55.93   56.24</time>
   <energy>
    <i name="e_fr_energy">   -581.98156114 </i>
    <i name="e_wo_entrp">   -581.98156114 </i>
    <i name="e_0_energy">   -581.98156114 </i>
   </energy>
  </scstep>
  <scstep>
   <time name="dav">   55.22   55.24</time>
   <time name="total">   57.49   57.52</time>
   <energy>
    <i name="e_fr_energy">   -581.98155736 </i>
    <i name="e_wo_entrp">   -581.98155736 </i>
    <i name="e_0_energy">   -581.98155736 </i>
   </energy>
  </scstep>
  <scstep>
   <time name="dav">  391.06  462.32</time>
   <time name="total">  393.00  464.84</time>
   <energy>
    <i name="alphaZ">    922.30103501 </i>
    <i name="ewald"> -11116.31849649 </i>
    <i name="hartreedc">   -847.16668124 </i>
    <i name="XCdc">    901.54798307 </i>
    <i name="pawpsdc">  24204.11911517 </i>
    <i name="pawaedc"> -24246.86852351 </i>
    <i name="eentropy">     -0.00000000 </i>
    <i name="bandstr">    182.84235959 </i>
    <i name="atom">   9417.56165038 </i>
    <i name="e_fr_energy">   -581.98155803 </i>
    <i name="e_wo_entrp">   -581.98155803 </i>
    <i name="e_0_energy">   -581.98155803 </i>
   </energy>
  </scstep>
  <parameters_embedded>
   <separator name="dft+d2" >
    <i type="logical" name="LVDW"> F  </i>
   </separator>
  </parameters_embedded>
  <structure>
   <crystal>
    <varray name="basis" >
     <v>       7.14538805       0.00000000       0.00000000 </v>
     <v>       0.00000000       7.14538805       0.00000000 </v>
     <v>       0.00000000       0.00000000       7.14538805 </v>
    </varray>
    <i name="volume">    364.81900807 </i>
    <varray name="rec_basis" >
     <v>       0.13995041       0.00000000       0.00000000 </v>
     <v>       0.00000000       0.13995041       0.00000000 </v>
     <v>       0.00000000       0.00000000       0.13995041 </v>
    </varray>
   </crystal>
   <varray name="positions" >
    <v>       0.00000000       0.00000000       0.00000000 </v>
    <v>       0.50000000       0.00000000       0.00000000 </v>
    <v>       0.00000000       0.50000000       0.00000000 </v>
    <v>       0.50000000       0.50000000       0.00000000 </v>
    <v>       0.00000000       0.00000000       0.50000000 </v>
    <v>       0.50000000       0.00000000       0.50000000 </v>
    <v>       0.00000000       0.50000000       0.50000000 </v>
    <v>       0.50000000       0.50000000       0.50000000 </v>
    <v>       0.00000000       0.25000000       0.25000000 </v>
    <v>       0.50000000       0.25000000       0.25000000 </v>
    <v>       0.00000000       0.75000000       0.25000000 </v>
    <v>       0.50000000       0.75000000       0.25000000 </v>
    <v>       0.00000000       0.25000000       0.75000000 </v>
    <v>       0.50000000       0.25000000       0.75000000 </v>
    <v>       0.00000000       0.75000000       0.75000000 </v>
    <v>       0.50000000       0.75000000       0.75000000 </v>
    <v>       0.25000000       0.25000000       0.00000000 </v>
    <v>       0.75000000       0.25000000       0.00000000 </v>
    <v>       0.25000000       0.75000000       0.00000000 </v>
    <v>       0.75000000       0.75000000       0.00000000 </v>
    <v>       0.25000000       0.25000000       0.50000000 </v>
    <v>       0.75000000       0.25000000       0.50000000 </v>
    <v>       0.25000000       0.75000000       0.50000000 </v>
    <v>       0.75000000       0.75000000       0.50000000 </v>
    <v>       0.25000000       0.00000000       0.25000000 </v>
    <v>       0.75000000       0.00000000       0.25000000 </v>
    <v>       0.25000000       0.50000000       0.25000000 </v>
    <v>       0.75000000       0.50000000       0.25000000 </v>
    <v>       0.25000000       0.00000000       0.75000000 </v>
    <v>       0.75000000       0.00000000       0.75000000 </v>
    <v>       0.25000000       0.50000000       0.75000000 </v>
    <v>       0.75000000       0.50000000       0.75000000 </v>
    <v>       0.37500000       0.12500000       0.37500000 </v>
    <v>       0.87500000       0.12500000       0.37500000 </v>
    <v>       0.37500000       0.62500000       0.37500000 </v>
    <v>       0.87500000       0.62500000       0.37500000 </v>
    <v>       0.37500000       0.12500000       0.87500000 </v>
    <v>       0.87500000       0.12500000       0.87500000 </v>
    <v>       0.37500000       0.62500000       0.87500000 </v>
    <v>       0.87500000       0.62500000       0.87500000 </v>
    <v>       0.12500000       0.12500000       0.12500000 </v>
    <v>       0.62500000       0.12500000       0.12500000 </v>
    <v>       0.12500000       0.62500000       0.12500000 </v>
    <v>       0.62500000       0.62500000       0.12500000 </v>
    <v>       0.12500000       0.12500000       0.62500000 </v>
    <v>       0.62500000       0.12500000       0.62500000 </v>
    <v>       0.12500000       0.62500000       0.62500000 </v>
    <v>       0.62500000       0.62500000       0.62500000 </v>
    <v>       0.12500000       0.37500000       0.37500000 </v>
    <v>       0.62500000       0.37500000       0.37500000 </v>
    <v>       0.12500000       0.87500000       0.37500000 </v>
    <v>       0.62500000       0.87500000       0.37500000 </v>
    <v>       0.12500000       0.37500000       0.87500000 </v>
    <v>       0.62500000       0.37500000       0.87500000 </v>
    <v>       0.12500000       0.87500000       0.87500000 </v>
    <v>       0.62500000       0.87500000       0.87500000 </v>
    <v>       0.37500000       0.37500000       0.12500000 </v>
    <v>       0.87500000       0.37500000       0.12500000 </v>
    <v>       0.37500000       0.87500000       0.12500000 </v>
    <v>       0.87500000       0.87500000       0.12500000 </v>
    <v>       0.37500000       0.37500000       0.62500000 </v>
    <v>       0.87500000       0.37500000       0.62500000 </v>
    <v>       0.37500000       0.87500000       0.62500000 </v>
    <v>       0.87500000       0.87500000       0.62500000 </v>
   </varray>
  </structure>
  <varray name="forces" >
   <v>       0.00000000      -0.00000000      -0.00000000 </v>
   <v>       0.00000000      -0.00000000       0.00000000 </v>
   <v>       0.00000000      -0.00000000       0.00000000 </v>
   <v>      -0.00000000      -0.00000000       0.00000000 </v>
   <v>       0.00000000       0.00000000      -0.00000000 </v>
   <v>       0.00000000       0.00000000       0.00000000 </v>
   <v>       0.00000000      -0.00000000       0.00000000 </v>
   <v>      -0.00000000      -0.00000000      -0.00000000 </v>
   <v>       0.00000000      -0.00000000       0.00000000 </v>
   <v>       0.00000000      -0.00000000      -0.00000000 </v>
   <v>      -0.00000000      -0.00000000       0.00000000 </v>
   <v>      -0.00000000       0.00000000       0.00000000 </v>
   <v>       0.00000000       0.00000000       0.00000000 </v>
   <v>       0.00000000      -0.00000000       0.00000000 </v>
   <v>       0.00000000      -0.00000000       0.00000000 </v>
   <v>      -0.00000000       0.00000000       0.00000000 </v>
   <v>       0.00000000      -0.00000000       0.00000000 </v>
   <v>      -0.00000000      -0.00000000       0.00000000 </v>
   <v>      -0.00000000       0.00000000      -0.00000000 </v>
   <v>      -0.00000000       0.00000000       0.00000000 </v>
   <v>       0.00000000       0.00000000      -0.00000000 </v>
   <v>       0.00000000       0.00000000      -0.00000000 </v>
   <v>       0.00000000       0.00000000      -0.00000000 </v>
   <v>       0.00000000      -0.00000000       0.00000000 </v>
   <v>       0.00000000      -0.00000000       0.00000000 </v>
   <v>       0.00000000       0.00000000       0.00000000 </v>
   <v>      -0.00000000       0.00000000       0.00000000 </v>
   <v>       0.00000000       0.00000000       0.00000000 </v>
   <v>       0.00000000      -0.00000000      -0.00000000 </v>
   <v>      -0.00000000      -0.00000000       0.00000000 </v>
   <v>      -0.00000000       0.00000000       0.00000000 </v>
   <v>       0.00000000      -0.00000000       0.00000000 </v>
   <v>      -0.00000000       0.00000000       0.00000000 </v>
   <v>      -0.00000000       0.00000000      -0.00000000 </v>
   <v>      -0.00000000       0.00000000      -0.00000000 </v>
   <v>      -0.00000000       0.00000000       0.00000000 </v>
   <v>      -0.00000000       0.00000000      -0.00000000 </v>
   <v>      -0.00000000       0.00000000      -0.00000000 </v>
   <v>      -0.00000000       0.00000000      -0.00000000 </v>
   <v>       0.00000000      -0.00000000      -0.00000000 </v>
   <v>      -0.00000000      -0.00000000      -0.00000000 </v>
   <v>       0.00000000       0.00000000      -0.00000000 </v>
   <v>       0.00000000       0.00000000       0.00000000 </v>
   <v>      -0.00000000      -0.00000000      -0.00000000 </v>
   <v>      -0.00000000      -0.00000000      -0.00000000 </v>
   <v>       0.00000000      -0.00000000      -0.00000000 </v>
   <v>      -0.00000000       0.00000000      -0.00000000 </v>
   <v>      -0.00000000       0.00000000      -0.00000000 </v>
   <v>      -0.00000000       0.00000000       0.00000000 </v>
   <v>       0.00000000       0.00000000      -0.00000000 </v>
   <v>      -0.00000000       0.00000000       0.00000000 </v>
   <v>      -0.00000000       0.00000000      -0.00000000 </v>
   <v>       0.00000000      -0.00000000      -0.00000000 </v>
   <v>      -0.00000000      -0.00000000      -0.00000000 </v>
   <v>       0.00000000      -0.00000000      -0.00000000 </v>
   <v>      -0.00000000      -0.00000000      -0.00000000 </v>
   <v>      -0.00000000      -0.00000000      -0.00000000 </v>
   <v>       0.00000000       0.00000000       0.00000000 </v>
   <v>      -0.00000000      -0.00000000       0.00000000 </v>
   <v>       0.00000000      -0.00000000      -0.00000000 </v>
   <v>      -0.00000000       0.00000000       0.00000000 </v>
   <v>      -0.00000000       0.00000000      -0.00000000 </v>
   <v>      -0.00000000       0.00000000       0.00000000 </v>
   <v>      -0.00000000      -0.00000000      -0.00000000 </v>
  </varray>
  <varray name="stress" >
   <v>      -0.06823305      -0.00000000       0.00000000 </v>
   <v>      -0.00000000      -0.06823305      -0.00000000 </v>
   <v>       0.00000000      -0.00000000      -0.06823305 </v>
  </varray>
  <energy>
   <i name="e_fr_energy">   -581.98155803 </i>
   <i name="e_wo_entrp">   -581.98155803 </i>
   <i name="e_0_energy">     -0.00000000 </i>
  </energy>
  <kpoints>
   <generation param="Monkhorst-Pack">
    <v type="int" name="divisions">      12       12       12 </v>
    <v name="usershift">      0.00000000       0.00000000       0.00000000 </v>
    <v name="genvec1">      0.08333333       0.00000000       0.00000000 </v>
    <v name="genvec2">      0.00000000       0.08333333       0.00000000 </v>
    <v name="genvec3">      0.00000000       0.00000000       0.08333333 </v>
    <v name="shift">      0.50000000       0.50000000       0.50000000 </v>
   </generation>
   <varray name="kpointlist" >
    <v>       0.04166667       0.04166667       0.04166667 </v>
    <v>       0.12500000       0.04166667       0.04166667 </v>
    <v>       0.20833333       0.04166667       0.04166667 </v>
    <v>       0.29166667       0.04166667       0.04166667 </v>
    <v>       0.37500000       0.04166667       0.04166667 </v>
    <v>       0.45833333       0.04166667       0.04166667 </v>
    <v>       0.04166667       0.12500000       0.04166667 </v>
    <v>       0.12500000       0.12500000       0.04166667 </v>
    <v>       0.20833333       0.12500000       0.04166667 </v>
    <v>       0.29166667       0.12500000       0.04166667 </v>
    <v>       0.37500000       0.12500000       0.04166667 </v>
    <v>       0.45833333       0.12500000       0.04166667 </v>
    <v>       0.04166667       0.20833333       0.04166667 </v>
    <v>       0.12500000       0.20833333       0.04166667 </v>
    <v>       0.20833333       0.20833333       0.04166667 </v>
    <v>       0.29166667       0.20833333       0.04166667 </v>
    <v>       0.37500000       0.20833333       0.04166667 </v>
    <v>       0.45833333       0.20833333       0.04166667 </v>
    <v>       0.04166667       0.29166667       0.04166667 </v>
    <v>       0.12500000       0.29166667       0.04166667 </v>
    <v>       0.20833333       0.29166667       0.04166667 </v>
    <v>       0.29166667       0.29166667       0.04166667 </v>
    <v>       0.37500000       0.29166667       0.04166667 </v>
    <v>       0.45833333       0.29166667       0.04166667 </v>
    <v>       0.04166667       0.37500000       0.04166667 </v>
    <v>       0.12500000       0.37500000       0.04166667 </v>
    <v>       0.20833333       0.37500000       0.04166667 </v>
    <v>       0.29166667       0.37500000       0.04166667 </v>
    <v>       0.37500000       0.37500000       0.04166667 </v>
    <v>       0.45833333       0.37500000       0.04166667 </v>
    <v>       0.04166667       0.45833333       0.04166667 </v>
    <v>       0.12500000       0.45833333       0.04166667 </v>
    <v>       0.20833333       0.45833333       0.04166667 </v>
    <v>       0.29166667       0.45833333       0.04166667 </v>
    <v>       0.37500000       0.45833333       0.04166667 </v>
    <v>       0.45833333       0.45833333       0.04166667 </v>
    <v>       0.04166667      -0.45833333       0.04166667 </v>
    <v>       0.12500000      -0.45833333       0.04166667 </v>
    <v>       0.20833333      -0.45833333       0.04166667 </v>
    <v>       0.29166667      -0.45833333       0.04166667 </v>
    <v>       0.37500000      -0.45833333       0.04166667 </v>
    <v>       0.45833333      -0.45833333       0.04166667 </v>
    <v>       0.04166667      -0.37500000       0.04166667 </v>
    <v>       0.12500000      -0.37500000       0.04166667 </v>
    <v>       0.20833333      -0.37500000       0.04166667 </v>
    <v>       0.29166667      -0.37500000       0.04166667 </v>
    <v>       0.37500000      -0.37500000       0.04166667 </v>
    <v>       0.45833333      -0.37500000       0.04166667 </v>
    <v>       0.04166667      -0.29166667       0.04166667 </v>
    <v>       0.12500000      -0.29166667       0.04166667 </v>
    <v>       0.20833333      -0.29166667       0.04166667 </v>
    <v>       0.29166667      -0.29166667       0.04166667 </v>
    <v>       0.37500000      -0.29166667       0.04166667 </v>
    <v>       0.45833333      -0.29166667       0.04166667 </v>
    <v>       0.04166667      -0.20833333       0.04166667 </v>
    <v>       0.12500000      -0.20833333       0.04166667 </v>
    <v>       0.20833333      -0.20833333       0.04166667 </v>
    <v>       0.29166667      -0.20833333       0.04166667 </v>
    <v>       0.37500000      -0.20833333       0.04166667 </v>
    <v>       0.45833333      -0.20833333       0.04166667 </v>
    <v>       0.04166667      -0.12500000       0.04166667 </v>
    <v>       0.12500000      -0.12500000       0.04166667 </v>
    <v>       0.20833333      -0.12500000       0.04166667 </v>
    <v>       0.29166667      -0.12500000       0.04166667 </v>
    <v>       0.37500000      -0.12500000       0.04166667 </v>
    <v>       0.45833333      -0.12500000       0.04166667 </v>
    <v>       0.04166667      -0.04166667       0.04166667 </v>
    <v>       0.12500000      -0.04166667       0.04166667 </v>
    <v>       0.20833333      -0.04166667       0.04166667 </v>
    <v>       0.29166667      -0.04166667       0.04166667 </v>
    <v>       0.37500000      -0.04166667       0.04166667 </v>
    <v>       0.45833333      -0.04166667       0.04166667 </v>
    <v>       0.04166667       0.12500000       0.12500000 </v>
    <v>       0.12500000       0.12500000       0.12500000 </v>
    <v>       0.20833333       0.12500000       0.12500000 </v>
    <v>       0.29166667       0.12500000       0.12500000 </v>
    <v>       0.37500000       0.12500000       0.12500000 </v>
    <v>       0.45833333       0.12500000       0.12500000 </v>
    <v>       0.04166667       0.20833333       0.12500000 </v>
    <v>       0.12500000       0.20833333       0.12500000 </v>
    <v>       0.20833333       0.20833333       0.12500000 </v>
    <v>       0.29166667       0.20833333       0.12500000 </v>
    <v>       0.37500000       0.20833333       0.12500000 </v>
    <v>       0.45833333       0.20833333       0.12500000 </v>
    <v>       0.04166667       0.29166667       0.12500000 </v>
    <v>       0.12500000       0.29166667       0.12500000 </v>
    <v>       0.20833333       0.29166667       0.12500000 </v>
    <v>       0.29166667       0.29166667       0.12500000 </v>
    <v>       0.37500000       0.29166667       0.12500000 </v>
    <v>       0.45833333       0.29166667       0.12500000 </v>
    <v>       0.04166667       0.37500000       0.12500000 </v>
    <v>       0.12500000       0.37500000       0.12500000 </v>
    <v>       0.20833333       0.37500000       0.12500000 </v>
    <v>       0.29166667       0.37500000       0.12500000 </v>
    <v>       0.37500000       0.37500000       0.12500000 </v>
    <v>       0.45833333       0.37500000       0.12500000 </v>
    <v>       0.04166667       0.45833333       0.12500000 </v>
    <v>       0.12500000       0.45833333       0.12500000 </v>
    <v>       0.20833333       0.45833333       0.12500000 </v>
    <v>       0.29166667       0.45833333       0.12500000 </v>
    <v>       0.37500000       0.45833333       0.12500000 </v>
    <v>       0.45833333       0.45833333       0.12500000 </v>
    <v>       0.04166667      -0.45833333       0.12500000 </v>
    <v>       0.12500000      -0.45833333       0.12500000 </v>
    <v>       0.20833333      -0.45833333       0.12500000 </v>
    <v>       0.29166667      -0.45833333       0.12500000 </v>
    <v>       0.37500000      -0.45833333       0.12500000 </v>
    <v>       0.45833333      -0.45833333       0.12500000 </v>
    <v>       0.04166667      -0.37500000       0.12500000 </v>
    <v>       0.12500000      -0.37500000       0.12500000 </v>
    <v>       0.20833333      -0.37500000       0.12500000 </v>
    <v>       0.29166667      -0.37500000       0.12500000 </v>
    <v>       0.37500000      -0.37500000       0.12500000 </v>
    <v>       0.45833333      -0.37500000       0.12500000 </v>
    <v>       0.04166667      -0.29166667       0.12500000 </v>
    <v>       0.12500000      -0.29166667       0.12500000 </v>
    <v>       0.20833333      -0.29166667       0.12500000 </v>
    <v>       0.29166667      -0.29166667       0.12500000 </v>
    <v>       0.37500000      -0.29166667       0.12500000 </v>
    <v>       0.45833333      -0.29166667       0.12500000 </v>
    <v>       0.04166667      -0.20833333       0.12500000 </v>
    <v>       0.12500000      -0.20833333       0.12500000 </v>
    <v>       0.20833333      -0.20833333       0.12500000 </v>
    <v>       0.29166667      -0.20833333       0.12500000 </v>
    <v>       0.37500000      -0.20833333       0.12500000 </v>
    <v>       0.45833333      -0.20833333       0.12500000 </v>
    <v>       0.04166667      -0.12500000       0.12500000 </v>
    <v>       0.12500000      -0.12500000       0.12500000 </v>
    <v>       0.20833333      -0.12500000       0.12500000 </v>
    <v>       0.29166667      -0.12500000       0.12500000 </v>
    <v>       0.37500000      -0.12500000       0.12500000 </v>
    <v>       0.45833333      -0.12500000       0.12500000 </v>
    <v>       0.04166667       0.20833333       0.20833333 </v>
    <v>       0.12500000       0.20833333       0.20833333 </v>
    <v>       0.20833333       0.20833333       0.20833333 </v>
    <v>       0.29166667       0.20833333       0.20833333 </v>
    <v>       0.37500000       0.20833333       0.20833333 </v>
    <v>       0.45833333       0.20833333       0.20833333 </v>
    <v>       0.04166667       0.29166667       0.20833333 </v>
    <v>       0.12500000       0.29166667       0.20833333 </v>
    <v>       0.20833333       0.29166667       0.20833333 </v>
    <v>       0.29166667       0.29166667       0.20833333 </v>
    <v>       0.37500000       0.29166667       0.20833333 </v>
    <v>       0.45833333       0.29166667       0.20833333 </v>
    <v>       0.04166667       0.37500000       0.20833333 </v>
    <v>       0.12500000       0.37500000       0.20833333 </v>
    <v>       0.20833333       0.37500000       0.20833333 </v>
    <v>       0.29166667       0.37500000       0.20833333 </v>
    <v>       0.37500000       0.37500000       0.20833333 </v>
    <v>       0.45833333       0.37500000       0.20833333 </v>
    <v>       0.04166667       0.45833333       0.20833333 </v>
    <v>       0.12500000       0.45833333       0.20833333 </v>
    <v>       0.20833333       0.45833333       0.20833333 </v>
    <v>       0.29166667       0.45833333       0.20833333 </v>
    <v>       0.37500000       0.45833333       0.20833333 </v>
    <v>       0.45833333       0.45833333       0.20833333 </v>
    <v>       0.04166667      -0.45833333       0.20833333 </v>
    <v>       0.12500000      -0.45833333       0.20833333 </v>
    <v>       0.20833333      -0.45833333       0.20833333 </v>
    <v>       0.29166667      -0.45833333       0.20833333 </v>
    <v>       0.37500000      -0.45833333       0.20833333 </v>
    <v>       0.45833333      -0.45833333       0.20833333 </v>
    <v>       0.04166667      -0.37500000       0.20833333 </v>
    <v>       0.12500000      -0.37500000       0.20833333 </v>
    <v>       0.20833333      -0.37500000       0.20833333 </v>
    <v>       0.29166667      -0.37500000       0.20833333 </v>
    <v>       0.37500000      -0.37500000       0.20833333 </v>
    <v>       0.45833333      -0.37500000       0.20833333 </v>
    <v>       0.04166667      -0.29166667       0.20833333 </v>
    <v>       0.12500000      -0.29166667       0.20833333 </v>
    <v>       0.20833333      -0.29166667       0.20833333 </v>
    <v>       0.29166667      -0.29166667       0.20833333 </v>
    <v>       0.37500000      -0.29166667       0.20833333 </v>
    <v>       0.45833333      -0.29166667       0.20833333 </v>
    <v>       0.04166667      -0.20833333       0.20833333 </v>
    <v>       0.12500000      -0.20833333       0.20833333 </v>
    <v>       0.20833333      -0.20833333       0.20833333 </v>
    <v>       0.29166667      -0.20833333       0.20833333 </v>
    <v>       0.37500000      -0.20833333       0.20833333 </v>
    <v>       0.45833333      -0.20833333       0.20833333 </v>
    <v>       0.04166667       0.29166667       0.29166667 </v>
    <v>       0.12500000       0.29166667       0.29166667 </v>
    <v>       0.20833333       0.29166667       0.29166667 </v>
    <v>       0.29166667       0.29166667       0.29166667 </v>
    <v>       0.37500000       0.29166667       0.29166667 </v>
    <v>       0.45833333       0.29166667       0.29166667 </v>
    <v>       0.04166667       0.37500000       0.29166667 </v>
    <v>       0.12500000       0.37500000       0.29166667 </v>
    <v>       0.20833333       0.37500000       0.29166667 </v>
    <v>       0.29166667       0.37500000       0.29166667 </v>
    <v>       0.37500000       0.37500000       0.29166667 </v>
    <v>       0.45833333       0.37500000       0.29166667 </v>
    <v>       0.04166667       0.45833333       0.29166667 </v>
    <v>       0.12500000       0.45833333       0.29166667 </v>
    <v>       0.20833333       0.45833333       0.29166667 </v>
    <v>       0.29166667       0.45833333       0.29166667 </v>
    <v>       0.37500000       0.45833333       0.29166667 </v>
    <v>       0.45833333       0.45833333       0.29166667 </v>
    <v>       0.04166667      -0.45833333       0.29166667 </v>
    <v>       0.12500000      -0.45833333       0.29166667 </v>
    <v>       0.20833333      -0.45833333       0.29166667 </v>
    <v>       0.29166667      -0.45833333       0.29166667 </v>
    <v>       0.37500000      -0.45833333       0.29166667 </v>
    <v>       0.45833333      -0.45833333       0.29166667 </v>
    <v>       0.04166667      -0.37500000       0.29166667 </v>
    <v>       0.12500000      -0.37500000       0.29166667 </v>
    <v>       0.20833333      -0.37500000       0.29166667 </v>
    <v>       0.29166667      -0.37500000       0.29166667 </v>
    <v>       0.37500000      -0.37500000       0.29166667 </v>
    <v>       0.45833333      -0.37500000       0.29166667 </v>
    <v>       0.04166667      -0.29166667       0.29166667 </v>
    <v>       0.12500000      -0.29166667       0.29166667 </v>
    <v>       0.20833333      -0.29166667       0.29166667 </v>
    <v>       0.29166667      -0.29166667       0.29166667 </v>
    <v>       0.37500000      -0.29166667       0.29166667 </v>
    <v>       0.45833333      -0.29166667       0.29166667 </v>
    <v>       0.04166667       0.37500000       0.37500000 </v>
    <v>       0.12500000       0.37500000       0.37500000 </v>
    <v>       0.20833333       0.37500000       0.37500000 </v>
    <v>       0.29166667       0.37500000       0.37500000 </v>
    <v>       0.37500000       0.37500000       0.37500000 </v>
    <v>       0.45833333       0.37500000       0.37500000 </v>
    <v>       0.04166667       0.45833333       0.37500000 </v>
    <v>       0.12500000       0.45833333       0.37500000 </v>
    <v>       0.20833333       0.45833333       0.37500000 </v>
    <v>       0.29166667       0.45833333       0.37500000 </v>
    <v>       0.37500000       0.45833333       0.37500000 </v>
    <v>       0.45833333       0.45833333       0.37500000 </v>
    <v>       0.04166667      -0.45833333       0.37500000 </v>
    <v>       0.12500000      -0.45833333       0.37500000 </v>
    <v>       0.20833333      -0.45833333       0.37500000 </v>
    <v>       0.29166667      -0.45833333       0.37500000 </v>
    <v>       0.37500000      -0.45833333       0.37500000 </v>
    <v>       0.45833333      -0.45833333       0.37500000 </v>
    <v>       0.04166667      -0.37500000       0.37500000 </v>
    <v>       0.12500000      -0.37500000       0.37500000 </v>
    <v>       0.20833333      -0.37500000       0.37500000 </v>
    <v>       0.29166667      -0.37500000       0.37500000 </v>
    <v>       0.37500000      -0.37500000       0.37500000 </v>
    <v>       0.45833333      -0.37500000       0.37500000 </v>
    <v>       0.04166667       0.45833333       0.45833333 </v>
    <v>       0.12500000       0.45833333       0.45833333 </v>
    <v>       0.20833333       0.45833333       0.45833333 </v>
    <v>       0.29166667       0.45833333       0.45833333 </v>
    <v>       0.37500000       0.45833333       0.45833333 </v>
    <v>       0.45833333       0.45833333       0.45833333 </v>
    <v>       0.04166667      -0.45833333       0.45833333 </v>
    <v>       0.12500000      -0.45833333       0.45833333 </v>
    <v>       0.20833333      -0.45833333       0.45833333 </v>
    <v>       0.29166667      -0.45833333       0.45833333 </v>
    <v>       0.37500000      -0.45833333       0.45833333 </v>
    <v>       0.45833333      -0.45833333       0.45833333 </v>
   </varray>
   <varray name="weights" >
    <v>       0.00231481 </v>
    <v>       0.00231481 </v>
    <v>       0.00231481 </v>
    <v>       0.00231481 </v>
    <v>       0.00231481 </v>
    <v>       0.00231481 </v>
    <v>       0.00462963 </v>
    <v>       0.00462963 </v>
    <v>       0.00462963 </v>
    <v>       0.00462963 </v>
    <v>       0.00462963 </v>
    <v>       0.00462963 </v>
    <v>       0.00462963 </v>
    <v>       0.00462963 </v>
    <v>       0.00462963 </v>
    <v>       0.00462963 </v>
    <v>       0.00462963 </v>
    <v>       0.00462963 </v>
    <v>       0.00462963 </v>
    <v>       0.00462963 </v>
    <v>       0.00462963 </v>
    <v>       0.00462963 </v>
    <v>       0.00462963 </v>
    <v>       0.00462963 </v>
    <v>       0.00462963 </v>
    <v>       0.00462963 </v>
    <v>       0.00462963 </v>
    <v>       0.00462963 </v>
    <v>       0.00462963 </v>
    <v>       0.00462963 </v>
    <v>       0.00462963 </v>
    <v>       0.00462963 </v>
    <v>       0.00462963 </v>
    <v>       0.00462963 </v>
    <v>       0.00462963 </v>
    <v>       0.00462963 </v>
    <v>       0.00462963 </v>
    <v>       0.00462963 </v>
    <v>       0.00462963 </v>
    <v>       0.00462963 </v>
    <v>       0.00462963 </v>
    <v>       0.00462963 </v>
    <v>       0.00462963 </v>
    <v>       0.00462963 </v>
    <v>       0.00462963 </v>
    <v>       0.00462963 </v>
    <v>       0.00462963 </v>
    <v>       0.00462963 </v>
    <v>       0.00462963 </v>
    <v>       0.00462963 </v>
    <v>       0.00462963 </v>
    <v>       0.00462963 </v>
    <v>       0.00462963 </v>
    <v>       0.00462963 </v>
    <v>       0.00462963 </v>
    <v>       0.00462963 </v>
    <v>       0.00462963 </v>
    <v>       0.00462963 </v>
    <v>       0.00462963 </v>
    <v>       0.00462963 </v>
    <v>       0.00462963 </v>
    <v>       0.00462963 </v>
    <v>       0.00462963 </v>
    <v>       0.00462963 </v>
    <v>       0.00462963 </v>
    <v>       0.00462963 </v>
    <v>       0.00231481 </v>
    <v>       0.00231481 </v>
    <v>       0.00231481 </v>
    <v>       0.00231481 </v>
    <v>       0.00231481 </v>
    <v>       0.00231481 </v>
    <v>       0.00231481 </v>
    <v>       0.00231481 </v>
    <v>       0.00231481 </v>
    <v>       0.00231481 </v>
    <v>       0.00231481 </v>
    <v>       0.00231481 </v>
    <v>       0.00462963 </v>
    <v>       0.00462963 </v>
    <v>       0.00462963 </v>
    <v>       0.00462963 </v>
    <v>       0.00462963 </v>
    <v>       0.00462963 </v>
    <v>       0.00462963 </v>
    <v>       0.00462963 </v>
    <v>       0.00462963 </v>
    <v>       0.00462963 </v>
    <v>       0.00462963 </v>
    <v>       0.00462963 </v>
    <v>       0.00462963 </v>
    <v>       0.00462963 </v>
    <v>       0.00462963 </v>
    <v>       0.00462963 </v>
    <v>       0.00462963 </v>
    <v>       0.00462963 </v>
    <v>       0.00462963 </v>
    <v>       0.00462963 </v>
    <v>       0.00462963 </v>
    <v>       0.00462963 </v>
    <v>       0.00462963 </v>
    <v>       0.00462963 </v>
    <v>       0.00462963 </v>
    <v>       0.00462963 </v>
    <v>       0.00462963 </v>
    <v>       0.00462963 </v>
    <v>       0.00462963 </v>
    <v>       0.00462963 </v>
    <v>       0.00462963 </v>
    <v>       0.00462963 </v>
    <v>       0.00462963 </v>
    <v>       0.00462963 </v>
    <v>       0.00462963 </v>
    <v>       0.00462963 </v>
    <v>       0.00462963 </v>
    <v>       0.00462963 </v>
    <v>       0.00462963 </v>
    <v>       0.00462963 </v>
    <v>       0.00462963 </v>
    <v>       0.00462963 </v>
    <v>       0.00462963 </v>
    <v>       0.00462963 </v>
    <v>       0.00462963 </v>
    <v>       0.00462963 </v>
    <v>       0.00462963 </v>
    <v>       0.00462963 </v>
    <v>       0.00231481 </v>
    <v>       0.00231481 </v>
    <v>       0.00231481 </v>
    <v>       0.00231481 </v>
    <v>       0.00231481 </v>
    <v>       0.00231481 </v>
    <v>       0.00231481 </v>
    <v>       0.00231481 </v>
    <v>       0.00231481 </v>
    <v>       0.00231481 </v>
    <v>       0.00231481 </v>
    <v>       0.00231481 </v>
    <v>       0.00462963 </v>
    <v>       0.00462963 </v>
    <v>       0.00462963 </v>
    <v>       0.00462963 </v>
    <v>       0.00462963 </v>
    <v>       0.00462963 </v>
    <v>       0.00462963 </v>
    <v>       0.00462963 </v>
    <v>       0.00462963 </v>
    <v>       0.00462963 </v>
    <v>       0.00462963 </v>
    <v>       0.00462963 </v>
    <v>       0.00462963 </v>
    <v>       0.00462963 </v>
    <v>       0.00462963 </v>
    <v>       0.00462963 </v>
    <v>       0.00462963 </v>
    <v>       0.00462963 </v>
    <v>       0.00462963 </v>
    <v>       0.00462963 </v>
    <v>       0.00462963 </v>
    <v>       0.00462963 </v>
    <v>       0.00462963 </v>
    <v>       0.00462963 </v>
    <v>       0.00462963 </v>
    <v>       0.00462963 </v>
    <v>       0.00462963 </v>
    <v>       0.00462963 </v>
    <v>       0.00462963 </v>
    <v>       0.00462963 </v>
    <v>       0.00462963 </v>
    <v>       0.00462963 </v>
    <v>       0.00462963 </v>
    <v>       0.00462963 </v>
    <v>       0.00462963 </v>
    <v>       0.00462963 </v>
    <v>       0.00231481 </v>
    <v>       0.00231481 </v>
    <v>       0.00231481 </v>
    <v>       0.00231481 </v>
    <v>       0.00231481 </v>
    <v>       0.00231481 </v>
    <v>       0.00231481 </v>
    <v>       0.00231481 </v>
    <v>       0.00231481 </v>
    <v>       0.00231481 </v>
    <v>       0.00231481 </v>
    <v>       0.00231481 </v>
    <v>       0.00462963 </v>
    <v>       0.00462963 </v>
    <v>       0.00462963 </v>
    <v>       0.00462963 </v>
    <v>       0.00462963 </v>
    <v>       0.00462963 </v>
    <v>       0.00462963 </v>
    <v>       0.00462963 </v>
    <v>       0.00462963 </v>
    <v>       0.00462963 </v>
    <v>       0.00462963 </v>
    <v>       0.00462963 </v>
    <v>       0.00462963 </v>
    <v>       0.00462963 </v>
    <v>       0.00462963 </v>
    <v>       0.00462963 </v>
    <v>       0.00462963 </v>
    <v>       0.00462963 </v>
    <v>       0.00462963 </v>
    <v>       0.00462963 </v>
    <v>       0.00462963 </v>
    <v>       0.00462963 </v>
    <v>       0.00462963 </v>
    <v>       0.00462963 </v>
    <v>       0.00231481 </v>
    <v>       0.00231481 </v>
    <v>       0.00231481 </v>
    <v>       0.00231481 </v>
    <v>       0.00231481 </v>
    <v>       0.00231481 </v>
    <v>       0.00231481 </v>
    <v>       0.00231481 </v>
    <v>       0.00231481 </v>
    <v>       0.00231481 </v>
    <v>       0.00231481 </v>
    <v>       0.00231481 </v>
    <v>       0.00462963 </v>
    <v>       0.00462963 </v>
    <v>       0.00462963 </v>
    <v>       0.00462963 </v>
    <v>       0.00462963 </v>
    <v>       0.00462963 </v>
    <v>       0.00462963 </v>
    <v>       0.00462963 </v>
    <v>       0.00462963 </v>
    <v>       0.00462963 </v>
    <v>       0.00462963 </v>
    <v>       0.00462963 </v>
    <v>       0.00231481 </v>
    <v>       0.00231481 </v>
    <v>       0.00231481 </v>
    <v>       0.00231481 </v>
    <v>       0.00231481 </v>
    <v>       0.00231481 </v>
    <v>       0.00231481 </v>
    <v>       0.00231481 </v>
    <v>       0.00231481 </v>
    <v>       0.00231481 </v>
    <v>       0.00231481 </v>
    <v>       0.00231481 </v>
    <v>       0.00231481 </v>
    <v>       0.00231481 </v>
    <v>       0.00231481 </v>
    <v>       0.00231481 </v>
    <v>       0.00231481 </v>
    <v>       0.00231481 </v>
   </varray>
  </kpoints>
  <scstep>
   <time name="total">  436.57  437.08</time>
   <energy>
    <i name="e_fr_energy">   -365.92692819 </i>
    <i name="e_wo_entrp">   -365.92692819 </i>
    <i name="e_0_energy">   -365.92692819 </i>
   </energy>
  </scstep>
  <scstep>
   <time name="total"> 1873.40 1873.47</time>
   <energy>
    <i name="e_fr_energy">   -312.25617847 </i>
    <i name="e_wo_entrp">   -312.25617847 </i>
    <i name="e_0_energy">   -312.25617847 </i>
   </energy>
  </scstep>
  <scstep>
   <time name="total"> 1850.80 1850.74</time>
   <energy>
    <i name="e_fr_energy">   -312.05944481 </i>
    <i name="e_wo_entrp">   -312.05944481 </i>
    <i name="e_0_energy">   -312.05944481 </i>
   </energy>
  </scstep>
  <scstep>
   <time name="total"> 1768.86 1768.88</time>
   <energy>
    <i name="e_fr_energy">   -312.88732185 </i>
    <i name="e_wo_entrp">   -312.88732185 </i>
    <i name="e_0_energy">   -312.88732185 </i>
   </energy>
  </scstep>
  <scstep>
   <time name="total"> 1728.11 1727.81</time>
   <energy>
    <i name="e_fr_energy">   -313.09122656 </i>
    <i name="e_wo_entrp">   -313.09122656 </i>
    <i name="e_0_energy">   -313.09122656 </i>
   </energy>
  </scstep>
  <scstep>
   <time name="total"> 1736.87 1736.61</time>
   <energy>
    <i name="e_fr_energy">   -313.04851150 </i>
    <i name="e_wo_entrp">   -313.04851150 </i>
    <i name="e_0_energy">   -313.04851150 </i>
   </energy>
  </scstep>
  <scstep>
   <time name="total"> 1752.54 1752.59</time>
   <energy>
    <i name="e_fr_energy">   -313.01571772 </i>
    <i name="e_wo_entrp">   -313.01571772 </i>
    <i name="e_0_energy">   -313.01571772 </i>
   </energy>
  </scstep>
  <scstep>
   <time name="total"> 1859.94 1860.00</time>
   <energy>
    <i name="e_fr_energy">   -313.01600744 </i>
    <i name="e_wo_entrp">   -313.01600744 </i>
    <i name="e_0_energy">   -313.01600744 </i>
   </energy>
  </scstep>
  <kpoints>
   <generation param="Monkhorst-Pack">
    <v type="int" name="divisions">      12       12       12 </v>
    <v name="usershift">      0.00000000       0.00000000       0.00000000 </v>
    <v name="genvec1">      0.08333333       0.00000000       0.00000000 </v>
    <v name="genvec2">      0.00000000       0.08333333       0.00000000 </v>
    <v name="genvec3">      0.00000000       0.00000000       0.08333333 </v>
    <v name="shift">      0.50000000       0.50000000       0.50000000 </v>
   </generation>
   <varray name="kpointlist" >
    <v>       0.04166667       0.04166667       0.04166667 </v>
    <v>       0.12500000       0.04166667       0.04166667 </v>
    <v>       0.20833333       0.04166667       0.04166667 </v>
    <v>       0.29166667       0.04166667       0.04166667 </v>
    <v>       0.37500000       0.04166667       0.04166667 </v>
    <v>       0.45833333       0.04166667       0.04166667 </v>
    <v>       0.12500000       0.12500000       0.04166667 </v>
    <v>       0.20833333       0.12500000       0.04166667 </v>
    <v>       0.29166667       0.12500000       0.04166667 </v>
    <v>       0.37500000       0.12500000       0.04166667 </v>
    <v>       0.45833333       0.12500000       0.04166667 </v>
    <v>       0.20833333       0.20833333       0.04166667 </v>
    <v>       0.29166667       0.20833333       0.04166667 </v>
    <v>       0.37500000       0.20833333       0.04166667 </v>
    <v>       0.45833333       0.20833333       0.04166667 </v>
    <v>       0.29166667       0.29166667       0.04166667 </v>
    <v>       0.37500000       0.29166667       0.04166667 </v>
    <v>       0.45833333       0.29166667       0.04166667 </v>
    <v>       0.37500000       0.37500000       0.04166667 </v>
    <v>       0.45833333       0.37500000       0.04166667 </v>
    <v>       0.45833333       0.45833333       0.04166667 </v>
    <v>       0.12500000       0.12500000       0.12500000 </v>
    <v>       0.20833333       0.12500000       0.12500000 </v>
    <v>       0.29166667       0.12500000       0.12500000 </v>
    <v>       0.37500000       0.12500000       0.12500000 </v>
    <v>       0.45833333       0.12500000       0.12500000 </v>
    <v>       0.20833333       0.20833333       0.12500000 </v>
    <v>       0.29166667       0.20833333       0.12500000 </v>
    <v>       0.37500000       0.20833333       0.12500000 </v>
    <v>       0.45833333       0.20833333       0.12500000 </v>
    <v>       0.29166667       0.29166667       0.12500000 </v>
    <v>       0.37500000       0.29166667       0.12500000 </v>
    <v>       0.45833333       0.29166667       0.12500000 </v>
    <v>       0.37500000       0.37500000       0.12500000 </v>
    <v>       0.45833333       0.37500000       0.12500000 </v>
    <v>       0.45833333       0.45833333       0.12500000 </v>
    <v>       0.20833333       0.20833333       0.20833333 </v>
    <v>       0.29166667       0.20833333       0.20833333 </v>
    <v>       0.37500000       0.20833333       0.20833333 </v>
    <v>       0.45833333       0.20833333       0.20833333 </v>
    <v>       0.29166667       0.29166667       0.20833333 </v>
    <v>       0.37500000       0.29166667       0.20833333 </v>
    <v>       0.45833333       0.29166667       0.20833333 </v>
    <v>       0.37500000       0.37500000       0.20833333 </v>
    <v>       0.45833333       0.37500000       0.20833333 </v>
    <v>       0.45833333       0.45833333       0.20833333 </v>
    <v>       0.29166667       0.29166667       0.29166667 </v>
    <v>       0.37500000       0.29166667       0.29166667 </v>
    <v>       0.45833333       0.29166667       0.29166667 </v>
    <v>       0.37500000       0.37500000       0.29166667 </v>
    <v>       0.45833333       0.37500000       0.29166667 </v>
    <v>       0.45833333       0.45833333       0.29166667 </v>
    <v>       0.37500000       0.37500000       0.37500000 </v>
    <v>       0.45833333       0.37500000       0.37500000 </v>
    <v>       0.45833333       0.45833333       0.37500000 </v>
    <v>       0.45833333       0.45833333       0.45833333 </v>
   </varray>
   <varray name="weights" >
    <v>       0.00462963 </v>
    <v>       0.01388889 </v>
    <v>       0.01388889 </v>
    <v>       0.01388889 </v>
    <v>       0.01388889 </v>
    <v>       0.01388889 </v>
    <v>       0.01388889 </v>
    <v>       0.02777778 </v>
    <v>       0.02777778 </v>
    <v>       0.02777778 </v>
    <v>       0.02777778 </v>
    <v>       0.01388889 </v>
    <v>       0.02777778 </v>
    <v>       0.02777778 </v>
    <v>       0.02777778 </v>
    <v>       0.01388889 </v>
    <v>       0.02777778 </v>
    <v>       0.02777778 </v>
    <v>       0.01388889 </v>
    <v>       0.02777778 </v>
    <v>       0.01388889 </v>
    <v>       0.00462963 </v>
    <v>       0.01388889 </v>
    <v>       0.01388889 </v>
    <v>       0.01388889 </v>
    <v>       0.01388889 </v>
    <v>       0.01388889 </v>
    <v>       0.02777778 </v>
    <v>       0.02777778 </v>
    <v>       0.02777778 </v>
    <v>       0.01388889 </v>
    <v>       0.02777778 </v>
    <v>       0.02777778 </v>
    <v>       0.01388889 </v>
    <v>       0.02777778 </v>
    <v>       0.01388889 </v>
    <v>       0.00462963 </v>
    <v>       0.01388889 </v>
    <v>       0.01388889 </v>
    <v>       0.01388889 </v>
    <v>       0.01388889 </v>
    <v>       0.02777778 </v>
    <v>       0.02777778 </v>
    <v>       0.01388889 </v>
    <v>       0.02777778 </v>
    <v>       0.01388889 </v>
    <v>       0.00462963 </v>
    <v>       0.01388889 </v>
    <v>       0.01388889 </v>
    <v>       0.01388889 </v>
    <v>       0.02777778 </v>
    <v>       0.01388889 </v>
    <v>       0.00462963 </v>
    <v>       0.01388889 </v>
    <v>       0.01388889 </v>
    <v>       0.00462963 </v>
   </varray>
  </kpoints>
  <dynmat>
   <varray name="hessian" >
    <v>      -3.68390194       0.00000000       0.00000000       0.01362537       0.00000000      -0.00000000       0.00777465      -0.00000000       0.00000000       0.01004489       0.00000000      -0.00000000       0.00777465       0.00000000       0.00000000       0.01004489      -0.00000000      -0.00000000      -0.04723056      -0.00000000      -0.00000000       0.00432725       0.00000000       0.00000000      -0.11525196      -0.05975632      -0.05975632      -0.00485135      -0.00317205      -0.00317205      -0.11525196      -0.05975632       0.05975632      -0.00485135      -0.00317205       0.00317205      -0.11525196       0.05975632      -0.05975632      -0.00485135       0.00317205      -0.00317205      -0.11525196       0.05975632       0.05975632      -0.00485135       0.00317205       0.00317205       0.12821106       0.13305858       0.05975632       0.12821106      -0.13305858       0.05975632       0.12821106      -0.13305858      -0.05975632       0.12821106       0.13305858      -0.05975632       0.00696974      -0.00621566       0.00317205       0.00696974       0.00621566       0.00317205       0.00696974       0.00621566      -0.00317205       0.00696974      -0.00621566      -0.00317205       0.12821106       0.05975632       0.13305858       0.12821106       0.05975632      -0.13305858       0.00696974       0.00317205      -0.00621566       0.00696974       0.00317205       0.00621566       0.12821106      -0.05975632      -0.13305858       0.12821106      -0.05975632       0.13305858       0.00696974      -0.00317205       0.00621566       0.00696974      -0.00317205      -0.00621566       0.00711916      -0.01788988       0.00899617      -0.01311628       0.00218999       0.00786012      -0.00269219      -0.00256024       0.00256024       0.02855231      -0.01788988       0.01788988      -0.00570401      -0.00786012       0.00786012       0.76096502      -0.17888101       0.17888101       0.00711916      -0.00899617       0.01788988      -0.01311628      -0.00786012      -0.00218999       0.76096502       0.17888101       0.17888101      -0.00570401       0.00786012       0.00786012      -0.01311628       0.00786012      -0.00218999       0.00711916       0.00899617       0.01788988      -0.01311628      -0.00218999       0.00786012       0.00711916       0.01788988       0.00899617       0.02855231       0.01788988       0.01788988      -0.00269219       0.00256024       0.00256024       0.02855231      -0.01788988      -0.01788988      -0.00269219      -0.00256024      -0.00256024      -0.01311628       0.00218999      -0.00786012       0.00711916      -0.01788988      -0.00899617      -0.01311628      -0.00786012       0.00218999       0.00711916      -0.00899617      -0.01788988       0.76096502      -0.17888101      -0.17888101      -0.00570401      -0.00786012      -0.00786012       0.00711916       0.00899617      -0.01788988      -0.01311628       0.00786012       0.00218999      -0.00570401       0.00786012      -0.00786012       0.76096502       0.17888101      -0.17888101      -0.00269219       0.00256024      -0.00256024       0.02855231       0.01788988      -0.01788988       0.00711916       0.01788988      -0.00899617      -0.01311628      -0.00218999      -0.00786012 </v>
    <v>       0.00000000      -3.68390194       0.00000000       0.00000000       0.00777465       0.00000000      -0.00000000       0.01362537       0.00000000       0.00000000       0.01004489      -0.00000000       0.00000000       0.00777465       0.00000000      -0.00000000      -0.04723056      -0.00000000      -0.00000000       0.01004489       0.00000000       0.00000000       0.00432725       0.00000000       0.05975632       0.12821106       0.13305858       0.00317205       0.00696974      -0.00621566       0.05975632       0.12821106      -0.13305858       0.00317205       0.00696974       0.00621566      -0.05975632       0.12821106      -0.13305858      -0.00317205       0.00696974       0.00621566      -0.05975632       0.12821106       0.13305858      -0.00317205       0.00696974      -0.00621566       0.13305858       0.12821106       0.05975632      -0.13305858       0.12821106      -0.05975632      -0.13305858       0.12821106       0.05975632       0.13305858       0.12821106      -0.05975632      -0.00621566       0.00696974       0.00317205       0.00621566       0.00696974      -0.00317205       0.00621566       0.00696974       0.00317205      -0.00621566       0.00696974      -0.00317205      -0.05975632      -0.11525196      -0.05975632      -0.05975632      -0.11525196       0.05975632      -0.00317205      -0.00485135      -0.00317205      -0.00317205      -0.00485135       0.00317205       0.05975632      -0.11525196      -0.05975632       0.05975632      -0.11525196       0.05975632       0.00317205      -0.00485135      -0.00317205       0.00317205      -0.00485135       0.00317205      -0.01788988       0.02855231      -0.01788988       0.00218999      -0.01311628      -0.00786012      -0.00256024      -0.00269219      -0.00256024      -0.01788988       0.00711916      -0.00899617      -0.00786012      -0.01311628       0.00218999      -0.17888101       0.76096502      -0.17888101      -0.00899617       0.00711916      -0.01788988      -0.00786012      -0.00570401      -0.00786012       0.17888101       0.76096502       0.17888101       0.00786012      -0.01311628      -0.00218999       0.00786012      -0.00570401       0.00786012       0.00899617       0.00711916       0.01788988      -0.00218999      -0.01311628       0.00786012       0.01788988       0.02855231       0.01788988       0.01788988       0.00711916       0.00899617       0.00256024      -0.00269219       0.00256024      -0.01788988       0.00711916       0.00899617      -0.00256024      -0.00269219       0.00256024       0.00218999      -0.01311628       0.00786012      -0.01788988       0.02855231       0.01788988      -0.00786012      -0.00570401       0.00786012      -0.00899617       0.00711916       0.01788988      -0.17888101       0.76096502       0.17888101      -0.00786012      -0.01311628      -0.00218999       0.00899617       0.00711916      -0.01788988       0.00786012      -0.00570401      -0.00786012       0.00786012      -0.01311628       0.00218999       0.17888101       0.76096502      -0.17888101       0.00256024      -0.00269219      -0.00256024       0.01788988       0.00711916      -0.00899617       0.01788988       0.02855231      -0.01788988      -0.00218999      -0.01311628      -0.00786012 </v>
[...]
      </set>
     </set>
    </set>
   </array>
  </eigenvalues>
  <separator name="orbital magnetization" >
   <v name="MAGDIPOLOUT">      0.00000000      0.00000000      0.00000000</v>
  </separator>
  <dos>
   <i name="efermi">     10.11064782 </i>
   <total>
    <array>
     <dimension dim="1">gridpoints</dimension>
     <dimension dim="2">spin</dimension>
     <field>energy</field>
     <field>total</field>
     <field>integrated</field>
     <set>
      <set comment="spin 1">
       <r>   -13.3056     0.0000     0.0000 </r>
       <r>   -13.1908     0.0000     0.0000 </r>
       <r>   -13.0761     0.0000     0.0000 </r>
       <r>   -12.9613     0.0000     0.0000 </r>
       <r>   -12.8465     0.0000     0.0000 </r>
       <r>   -12.7318     0.0000     0.0000 </r>
       <r>   -12.6170     0.0000     0.0000 </r>
       <r>   -12.5022     0.0000     0.0000 </r>
       <r>   -12.3875     0.0000     0.0000 </r>
       <r>   -12.2727     0.0000     0.0000 </r>
       <r>   -12.1579     0.0000     0.0000 </r>
       <r>   -12.0432     0.0000     0.0000 </r>
       <r>   -11.9284     0.0006     0.0001 </r>
       <r>   -11.8136     0.0386     0.0045 </r>
       <r>   -11.6989     0.3942     0.0497 </r>
       <r>   -11.5841     1.1141     0.1776 </r>
       <r>   -11.4693     1.6839     0.3709 </r>
       <r>   -11.3546     2.0968     0.6115 </r>
       <r>   -11.2398     2.4307     0.8905 </r>
       <r>   -11.1250     2.7224     1.2029 </r>
       <r>   -11.0103     3.0163     1.5491 </r>
       <r>   -10.8955     3.2231     1.9190 </r>
       <r>   -10.7807     3.5018     2.3209 </r>
       <r>   -10.6660     3.6785     2.7431 </r>
       <r>   -10.5512     3.9099     3.1918 </r>
       <r>   -10.4364     4.1360     3.6665 </r>
       <r>   -10.3216     4.2225     4.1511 </r>
       <r>   -10.2069     4.5538     4.6737 </r>
       <r>   -10.0921     4.6659     5.2092 </r>
       <r>    -9.9773     4.6855     5.7470 </r>
       <r>    -9.8626     5.2356     6.3478 </r>
       <r>    -9.7478     4.9911     6.9207 </r>
       <r>    -9.6330     5.3371     7.5332 </r>
       <r>    -9.5183     5.5756     8.1731 </r>
       <r>    -9.4035     5.6483     8.8213 </r>
       <r>    -9.2887     5.6373     9.4683 </r>
       <r>    -9.1740     6.0361    10.1611 </r>
       <r>    -9.0592     6.3001    10.8841 </r>
       <r>    -8.9444     5.9214    11.5637 </r>
       <r>    -8.8297     6.4343    12.3021 </r>
       <r>    -8.7149     6.8108    13.0838 </r>
       <r>    -8.6001     6.4871    13.8283 </r>
       <r>    -8.4854     6.8082    14.6097 </r>
       <r>    -8.3706     6.8797    15.3993 </r>
       <r>    -8.2558     7.3633    16.2443 </r>
       <r>    -8.1411     7.3472    17.0876 </r>
       <r>    -8.0263     6.9205    17.8818 </r>
       <r>    -7.9115     7.7445    18.7706 </r>
       <r>    -7.7967     8.0354    19.6928 </r>
       <r>    -7.6820     7.6769    20.5739 </r>
       <r>    -7.5672     7.7391    21.4621 </r>
       <r>    -7.4524     8.3181    22.4168 </r>
       <r>    -7.3377     8.3163    23.3712 </r>
       <r>    -7.2229     8.6900    24.3685 </r>
       <r>    -7.1081     8.6078    25.3564 </r>
       <r>    -6.9934     8.2743    26.3061 </r>
       <r>    -6.8786     9.2921    27.3725 </r>
       <r>    -6.7638     9.6548    28.4805 </r>
       <r>    -6.6491     9.1725    29.5333 </r>
       <r>    -6.5343     9.2723    30.5974 </r>
       <r>    -6.4195     9.9767    31.7424 </r>
       <r>    -6.3048    10.4211    32.9384 </r>
       <r>    -6.1900    10.5169    34.1454 </r>
       <r>    -6.0752    11.4521    35.4598 </r>
       <r>    -5.9605    11.4776    36.7770 </r>
       <r>    -5.8457    11.9096    38.1439 </r>
       <r>    -5.7309    12.5681    39.5863 </r>
       <r>    -5.6162    12.3126    40.9994 </r>
       <r>    -5.5014    10.9774    42.2592 </r>
       <r>    -5.3866    11.0225    43.5243 </r>
       <r>    -5.2719    11.2559    44.8161 </r>
       <r>    -5.1571    10.3667    46.0059 </r>
       <r>    -5.0423    11.0441    47.2734 </r>
       <r>    -4.9275    10.4337    48.4708 </r>
       <r>    -4.8128     9.0404    49.5084 </r>
       <r>    -4.6980     9.6365    50.6143 </r>
       <r>    -4.5832     9.6278    51.7193 </r>
       <r>    -4.4685     8.9926    52.7514 </r>
       <r>    -4.3537     9.4609    53.8372 </r>
       <r>    -4.2389     8.2243    54.7811 </r>
       <r>    -4.1242     7.3056    55.6195 </r>
       <r>    -4.0094     8.2310    56.5642 </r>
       <r>    -3.8946     8.3750    57.5254 </r>
       <r>    -3.7799     7.1594    58.3470 </r>
       <r>    -3.6651     7.0596    59.1572 </r>
       <r>    -3.5503     7.9123    60.0653 </r>
       <r>    -3.4356     7.9731    60.9804 </r>
       <r>    -3.3208     8.1298    61.9134 </r>
       <r>    -3.2060     9.3331    62.9846 </r>
       <r>    -3.0913     9.8782    64.1183 </r>
       <r>    -2.9765     8.9467    65.1451 </r>
       <r>    -2.8617     7.5782    66.0148 </r>
       <r>    -2.7470     7.4672    66.8718 </r>
       <r>    -2.6322     8.6540    67.8650 </r>
       <r>    -2.5174     9.3403    68.9370 </r>
       <r>    -2.4027     9.7726    70.0585 </r>
       <r>    -2.2879     9.9325    71.1985 </r>
       <r>    -2.1731    11.2315    72.4875 </r>
       <r>    -2.0583    12.4286    73.9139 </r>
       <r>    -1.9436    15.6370    75.7085 </r>
       <r>    -1.8288    21.1786    78.1391 </r>
       <r>    -1.7140    21.9845    80.6623 </r>
       <r>    -1.5993    17.3662    82.6553 </r>
       <r>    -1.4845    14.2724    84.2934 </r>
       <r>    -1.3697    15.1898    86.0367 </r>
       <r>    -1.2550    17.0554    87.9941 </r>
       <r>    -1.1402    13.6787    89.5640 </r>
       <r>    -1.0254    10.8325    90.8072 </r>
       <r>    -0.9107    10.1577    91.9730 </r>
       <r>    -0.7959    10.5308    93.1816 </r>
       <r>    -0.6811    12.5845    94.6259 </r>
       <r>    -0.5664    12.2388    96.0305 </r>
       <r>    -0.4516     9.0099    97.0645 </r>
       <r>    -0.3368     8.1091    97.9952 </r>
       <r>    -0.2221     8.9964    99.0277 </r>
       <r>    -0.1073     8.8979   100.0489 </r>
       <r>     0.0075    10.0939   101.2073 </r>
       <r>     0.1222     8.4424   102.1763 </r>
       <r>     0.2370     7.9322   103.0866 </r>
       <r>     0.3518     9.4544   104.1717 </r>
       <r>     0.4665     9.3392   105.2435 </r>
       <r>     0.5813    12.2495   106.6494 </r>
       <r>     0.6961    14.3050   108.2911 </r>
       <r>     0.8109    13.3411   109.8223 </r>
       <r>     0.9256    14.6106   111.4991 </r>
       <r>     1.0404    16.0685   113.3432 </r>
       <r>     1.1552    17.3159   115.3305 </r>
       <r>     1.2699    17.7929   117.3726 </r>
       <r>     1.3847    15.2291   119.1204 </r>
       <r>     1.4995    15.5837   120.9089 </r>
       <r>     1.6142    18.8197   123.0688 </r>
       <r>     1.7290    15.7240   124.8734 </r>
       <r>     1.8438    13.6894   126.4445 </r>
       <r>     1.9585    17.8584   128.4941 </r>
       <r>     2.0733    18.6876   130.6389 </r>
       <r>     2.1881    16.1631   132.4939 </r>
       <r>     2.3028    16.8042   134.4224 </r>
       <r>     2.4176    17.7306   136.4573 </r>
       <r>     2.5324    17.4737   138.4628 </r>
       <r>     2.6471    19.1335   140.6587 </r>
       <r>     2.7619    19.7621   142.9267 </r>
       <r>     2.8767    17.9881   144.9912 </r>
       <r>     2.9914    19.3766   147.2150 </r>
       <r>     3.1062    21.0491   149.6308 </r>
       <r>     3.2210    23.1274   152.2851 </r>
       <r>     3.3357    20.9842   154.6934 </r>
       <r>     3.4505    24.2033   157.4711 </r>
       <r>     3.5653    27.3926   160.6149 </r>
       <r>     3.6801    24.7764   163.4585 </r>
       <r>     3.7948    23.8995   166.2014 </r>
       <r>     3.9096    25.8189   169.1645 </r>
       <r>     4.0244    26.0868   172.1585 </r>
       <r>     4.1391    22.2958   174.7173 </r>
       <r>     4.2539    24.3183   177.5083 </r>
       <r>     4.3687    26.2208   180.5176 </r>
       <r>     4.4834    23.0108   183.1585 </r>
       <r>     4.5982    22.4665   185.7369 </r>
       <r>     4.7130    23.9980   188.4911 </r>
       <r>     4.8277    24.3851   191.2898 </r>
       <r>     4.9425    22.3403   193.8537 </r>
       <r>     5.0573    22.8572   196.4770 </r>
       <r>     5.1720    22.0994   199.0133 </r>
       <r>     5.2868    23.3322   201.6911 </r>
       <r>     5.4016    22.5181   204.2754 </r>
       <r>     5.5163    21.2518   206.7145 </r>
       <r>     5.6311    21.9422   209.2327 </r>
       <r>     5.7459    22.5535   211.8211 </r>
       <r>     5.8606    20.9326   214.2235 </r>
       <r>     5.9754    21.0221   216.6362 </r>
       <r>     6.0902    22.0538   219.1673 </r>
       <r>     6.2049    20.4152   221.5103 </r>
       <r>     6.3197    20.3775   223.8490 </r>
       <r>     6.4345    21.5943   226.3273 </r>
       <r>     6.5493    20.2411   228.6503 </r>
       <r>     6.6640    19.0945   230.8418 </r>
       <r>     6.7788    21.3299   233.2898 </r>
       <r>     6.8936    19.4866   235.5262 </r>
       <r>     7.0083    15.4714   237.3018 </r>
       <r>     7.1231    16.0682   239.1460 </r>
       <r>     7.2379    14.2956   240.7866 </r>
       <r>     7.3526    11.4990   242.1063 </r>
       <r>     7.4674    11.9893   243.4823 </r>
       <r>     7.5822    11.5160   244.8040 </r>
       <r>     7.6969     9.3195   245.8736 </r>
       <r>     7.8117     9.6010   246.9755 </r>
       <r>     7.9265     9.1671   248.0275 </r>
       <r>     8.0412     7.7113   248.9125 </r>
       <r>     8.1560     7.5280   249.7765 </r>
       <r>     8.2708     7.6563   250.6552 </r>
       <r>     8.3855     5.9631   251.3396 </r>
       <r>     8.5003     5.9947   252.0276 </r>
       <r>     8.6151     6.1366   252.7319 </r>
       <r>     8.7298     4.5564   253.2548 </r>
       <r>     8.8446     4.6911   253.7932 </r>
       <r>     8.9594     4.4704   254.3063 </r>
       <r>     9.0741     3.4246   254.6993 </r>
       <r>     9.1889     3.3860   255.0879 </r>
       <r>     9.3037     2.8208   255.4116 </r>
       <r>     9.4185     2.2384   255.6685 </r>
       <r>     9.5332     1.7405   255.8683 </r>
       <r>     9.6480     0.9216   255.9741 </r>
       <r>     9.7628     0.2153   255.9988 </r>
       <r>     9.8775     0.0106   256.0000 </r>
       <r>     9.9923     0.0001   256.0000 </r>
       <r>    10.1071     0.0000   256.0000 </r>
       <r>    10.2218     0.0000   256.0000 </r>
       <r>    10.3366     0.0000   256.0000 </r>
       <r>    10.4514     0.0000   256.0000 </r>
       <r>    10.5661     0.0000   256.0000 </r>
       <r>    10.6809     0.0000   256.0000 </r>
       <r>    10.7957     0.0000   256.0000 </r>
       <r>    10.9104     0.0000   256.0000 </r>
       <r>    11.0252     0.0000   256.0000 </r>
       <r>    11.1400     0.0000   256.0000 </r>
       <r>    11.2547     0.0000   256.0000 </r>
       <r>    11.3695     0.0000   256.0000 </r>
       <r>    11.4843     0.0000   256.0000 </r>
       <r>    11.5990     0.0000   256.0000 </r>
       <r>    11.7138     0.0000   256.0000 </r>
       <r>    11.8286     0.0000   256.0000 </r>
       <r>    11.9433     0.0000   256.0000 </r>
       <r>    12.0581     0.0000   256.0000 </r>
       <r>    12.1729     0.0000   256.0000 </r>
       <r>    12.2877     0.0000   256.0000 </r>
       <r>    12.4024     0.0000   256.0000 </r>
       <r>    12.5172     0.0000   256.0000 </r>
       <r>    12.6320     0.0000   256.0000 </r>
       <r>    12.7467     0.0000   256.0000 </r>
       <r>    12.8615     0.0000   256.0000 </r>
       <r>    12.9763     0.0000   256.0000 </r>
       <r>    13.0910     0.0000   256.0000 </r>
       <r>    13.2058     0.0000   256.0000 </r>
       <r>    13.3206     0.0000   256.0000 </r>
       <r>    13.4353     0.0000   256.0000 </r>
       <r>    13.5501     0.0001   256.0000 </r>
       <r>    13.6649     0.0127   256.0015 </r>
       <r>    13.7796     0.2854   256.0342 </r>
       <r>    13.8944     1.2305   256.1754 </r>
       <r>    14.0092     2.5212   256.4648 </r>
       <r>    14.1239     3.1401   256.8252 </r>
       <r>    14.2387     4.0045   257.2848 </r>
       <r>    14.3535     5.5288   257.9193 </r>
       <r>    14.4682     5.6233   258.5647 </r>
       <r>    14.5830     6.4302   259.3026 </r>
       <r>    14.6978     9.3719   260.3782 </r>
       <r>    14.8126     9.1352   261.4267 </r>
       <r>    14.9273     8.3421   262.3841 </r>
       <r>    15.0421    10.8601   263.6305 </r>
       <r>    15.1569    13.1718   265.1422 </r>
       <r>    15.2716    12.8024   266.6115 </r>
       <r>    15.3864    12.8849   268.0903 </r>
       <r>    15.5012    14.1952   269.7194 </r>
       <r>    15.6159    15.0529   271.4470 </r>
       <r>    15.7307    15.9791   273.2809 </r>
       <r>    15.8455    16.7828   275.2070 </r>
       <r>    15.9602    15.7629   277.0161 </r>
       <r>    16.0750    15.7171   278.8199 </r>
       <r>    16.1898    18.3086   280.9212 </r>
       <r>    16.3045    18.5996   283.0558 </r>
       <r>    16.4193    19.5523   285.2998 </r>
       <r>    16.5341    18.5847   287.4327 </r>
       <r>    16.6488    19.7188   289.6958 </r>
       <r>    16.7636    21.1488   292.1230 </r>
       <r>    16.8784    20.7354   294.5028 </r>
       <r>    16.9931    21.5317   296.9739 </r>
       <r>    17.1079    23.0509   299.6194 </r>
       <r>    17.2227    27.0295   302.7216 </r>
       <r>    17.3374    25.0551   305.5971 </r>
       <r>    17.4522    22.1349   308.1375 </r>
       <r>    17.5670    23.7576   310.8641 </r>
       <r>    17.6818    33.5027   314.7091 </r>
       <r>    17.7965    37.6192   319.0266 </r>
       <r>    17.9113    32.2869   322.7321 </r>
       <r>    18.0261    31.6885   326.3689 </r>
       <r>    18.1408    31.1232   329.9409 </r>
       <r>    18.2556    34.4204   333.8912 </r>
       <r>    18.3704    36.2480   338.0514 </r>
       <r>    18.4851    32.4165   341.7717 </r>
       <r>    18.5999    26.6531   344.8307 </r>
       <r>    18.7147    23.9638   347.5809 </r>
       <r>    18.8294    17.8973   349.6350 </r>
       <r>    18.9442    12.3396   351.0512 </r>
       <r>    19.0590     5.1726   351.6448 </r>
       <r>    19.1737     1.3190   351.7962 </r>
       <r>    19.2885     0.4515   351.8480 </r>
       <r>    19.4033     0.4708   351.9020 </r>
       <r>    19.5180     0.4383   351.9523 </r>
       <r>    19.6328     0.3483   351.9923 </r>
       <r>    19.7476     0.0654   351.9998 </r>
       <r>    19.8623     0.0015   352.0000 </r>
       <r>    19.9771     0.0000   352.0000 </r>
       <r>    20.0919     0.0000   352.0000 </r>
       <r>    20.2066     0.0000   352.0000 </r>
       <r>    20.3214     0.0000   352.0000 </r>
       <r>    20.4362     0.0000   352.0000 </r>
       <r>    20.5510     0.0000   352.0000 </r>
       <r>    20.6657     0.0000   352.0000 </r>
       <r>    20.7805     0.0000   352.0000 </r>
       <r>    20.8953     0.0000   352.0000 </r>
       <r>    21.0100     0.0000   352.0000 </r>
       <r>    21.1248     0.0000   352.0000 </r>
      </set>
     </set>
    </array>
   </total>
  </dos>
 </calculation>
 <structure name="finalpos" >
  <crystal>
   <varray name="basis" >
    <v>       7.14538805       0.00000000       0.00000000 </v>
    <v>       0.00000000       7.14538805       0.00000000 </v>
    <v>       0.00000000       0.00000000       7.14538805 </v>
   </varray>
   <i name="volume">    364.81900807 </i>
   <varray name="rec_basis" >
    <v>       0.13995041       0.00000000       0.00000000 </v>
    <v>       0.00000000       0.13995041       0.00000000 </v>
    <v>       0.00000000       0.00000000       0.13995041 </v>
   </varray>
  </crystal>
  <varray name="positions" >
   <v>       0.00000000       0.00000000       0.00000000 </v>
   <v>       0.50000000       0.00000000       0.00000000 </v>
   <v>       0.00000000       0.50000000       0.00000000 </v>
   <v>       0.50000000       0.50000000       0.00000000 </v>
   <v>       0.00000000       0.00000000       0.50000000 </v>
   <v>       0.50000000       0.00000000       0.50000000 </v>
   <v>       0.00000000       0.50000000       0.50000000 </v>
   <v>       0.50000000       0.50000000       0.50000000 </v>
   <v>       0.00000000       0.25000000       0.25000000 </v>
   <v>       0.50000000       0.25000000       0.25000000 </v>
   <v>       0.00000000       0.75000000       0.25000000 </v>
   <v>       0.50000000       0.75000000       0.25000000 </v>
   <v>       0.00000000       0.25000000       0.75000000 </v>
   <v>       0.50000000       0.25000000       0.75000000 </v>
   <v>       0.00000000       0.75000000       0.75000000 </v>
   <v>       0.50000000       0.75000000       0.75000000 </v>
   <v>       0.25000000       0.25000000       0.00000000 </v>
   <v>       0.75000000       0.25000000       0.00000000 </v>
   <v>       0.25000000       0.75000000       0.00000000 </v>
   <v>       0.75000000       0.75000000       0.00000000 </v>
   <v>       0.25000000       0.25000000       0.50000000 </v>
   <v>       0.75000000       0.25000000       0.50000000 </v>
   <v>       0.25000000       0.75000000       0.50000000 </v>
   <v>       0.75000000       0.75000000       0.50000000 </v>
   <v>       0.25000000       0.00000000       0.25000000 </v>
   <v>       0.75000000       0.00000000       0.25000000 </v>
   <v>       0.25000000       0.50000000       0.25000000 </v>
   <v>       0.75000000       0.50000000       0.25000000 </v>
   <v>       0.25000000       0.00000000       0.75000000 </v>
   <v>       0.75000000       0.00000000       0.75000000 </v>
   <v>       0.25000000       0.50000000       0.75000000 </v>
   <v>       0.75000000       0.50000000       0.75000000 </v>
   <v>       0.37500000       0.12500000       0.37500000 </v>
   <v>       0.87500000       0.12500000       0.37500000 </v>
   <v>       0.37500000       0.62500000       0.37500000 </v>
   <v>       0.87500000       0.62500000       0.37500000 </v>
   <v>       0.37500000       0.12500000       0.87500000 </v>
   <v>       0.87500000       0.12500000       0.87500000 </v>
   <v>       0.37500000       0.62500000       0.87500000 </v>
   <v>       0.87500000       0.62500000       0.87500000 </v>
   <v>       0.12500000       0.12500000       0.12500000 </v>
   <v>       0.62500000       0.12500000       0.12500000 </v>
   <v>       0.12500000       0.62500000       0.12500000 </v>
   <v>       0.62500000       0.62500000       0.12500000 </v>
   <v>       0.12500000       0.12500000       0.62500000 </v>
   <v>       0.62500000       0.12500000       0.62500000 </v>
   <v>       0.12500000       0.62500000       0.62500000 </v>
   <v>       0.62500000       0.62500000       0.62500000 </v>
   <v>       0.12500000       0.37500000       0.37500000 </v>
   <v>       0.62500000       0.37500000       0.37500000 </v>
   <v>       0.12500000       0.87500000       0.37500000 </v>
   <v>       0.62500000       0.87500000       0.37500000 </v>
   <v>       0.12500000       0.37500000       0.87500000 </v>
   <v>       0.62500000       0.37500000       0.87500000 </v>
   <v>       0.12500000       0.87500000       0.87500000 </v>
   <v>       0.62500000       0.87500000       0.87500000 </v>
   <v>       0.37500000       0.37500000       0.12500000 </v>
   <v>       0.87500000       0.37500000       0.12500000 </v>
   <v>       0.37500000       0.87500000       0.12500000 </v>
   <v>       0.87500000       0.87500000       0.12500000 </v>
   <v>       0.37500000       0.37500000       0.62500000 </v>
   <v>       0.87500000       0.37500000       0.62500000 </v>
   <v>       0.37500000       0.87500000       0.62500000 </v>
   <v>       0.87500000       0.87500000       0.62500000 </v>
  </varray>
 </structure>
</modeling>
